68
Properties=species:S:1:pos:R:3 energy=-1029091.2559943239 pbc="F F F"
O        1.11118924      -0.66404673       1.50998842
O        0.90052329      -0.86464107      -1.61453175
O       -3.22561635      -2.56044551       0.16994227
O       -3.22060677       3.18327522       0.12621454
O       -1.24584574       1.62740622      -1.42186268
O        2.23145199       2.87711612       1.25602078
N        0.43610068      -2.64652343      -0.36723506
N       -2.18426637      -0.89704273      -0.94508704
N       -3.78979362       1.02479628       0.22013131
N       -0.57415664       2.32607683       0.61449108
N        1.93680646       1.68378266      -0.63831915
N        3.11200204      -0.52445902       0.50998771
C        1.95775013      -1.15891059       0.78623171
C        1.77548121      -2.56552147       0.20634696
C        1.79204595      -3.62511099       1.31521093
C        0.31166363      -3.80783675       1.64214086
C       -0.34931446      -3.68444768       0.27327994
C        0.08364142      -1.70646440      -1.24938707
C       -1.35241946      -1.73674172      -1.78717310
C       -1.38454511      -1.20141805      -3.21425969
C       -3.05158297      -1.37172472      -0.05234383
C       -3.84058044      -0.31610342       0.75318444
C       -5.29764060      -0.76665836       0.85493407
C       -2.96548411       2.06024376       0.50260208
C       -1.70539257       1.76443423       1.33047825
C       -1.82359011       2.43068579       2.69549116
C       -0.41349950       2.15390737      -0.69893799
C        0.96144058       2.60023167      -1.20996985
C        1.03512117       2.54373302      -2.72631382
C        2.43328326       1.87266094       0.59317228
C        3.36656878       0.77320699       1.11081007
C        4.82076452       1.07149425       0.73991575
C        4.96280571       0.39042656      -0.61826745
C        4.13005070      -0.88345760      -0.46177760
H        2.51846517      -2.76726150      -0.56874891
H        2.21917682      -4.55434753       0.93535678
H        2.37248588      -3.29773562       2.17612489
H        0.09719855      -4.75756449       2.12633177
H       -0.02351455      -2.99170909       2.28175098
H       -0.24250341      -4.61902917      -0.29272066
H       -1.40486229      -3.42510805       0.34140481
H       -2.04644873       0.10864853      -1.07621144
H       -1.74763319      -2.75605642      -1.74176253
H       -1.06426677      -0.16276656      -3.21146213
H       -2.39434589      -1.26051136      -3.61122453
H       -0.71623113      -1.77811978      -3.84842338
H       -4.55980285       1.27881717      -0.38530412
H       -3.40751575      -0.32409476       1.76121058
H       -5.32946345      -1.79210081       1.21224479
H       -5.77041047      -0.72996405      -0.12442720
H       -5.84829276      -0.12762442       1.54048813
H        0.16918097       2.74816035       1.15798396
H       -1.54009274       0.68543992       1.44139177
H       -0.89821009       2.30348331       3.25244994
H       -2.63890397       1.98770515       3.26248869
H       -2.02383682       3.49159095       2.56457854
H        1.90319766       0.75033895      -1.03679859
H        1.18535732       3.60286737      -0.83028434
H        0.88183395       1.51835362      -3.05433417
H        2.00400427       2.89238985      -3.07434812
H        0.25391806       3.16512603      -3.15420603
H        3.21076335       0.72230322       2.19341281
H        5.49210194       0.61594183       1.46880666
H        5.01551824       2.14097697       0.70407445
H        5.99803595       0.17312585      -0.87248509
H        4.53519585       1.02230688      -1.39641496
H        3.67675269      -1.18385719      -1.40920171
H        4.74302537      -1.70794086      -0.07773378
68
Properties=species:S:1:pos:R:3 energy=-1029090.4803552915 pbc="F F F"
O        1.03790403      -0.51089063       1.54930269
O        0.90677900      -0.82793380      -1.49888801
O       -3.11828119      -2.55516513       0.24624007
O       -3.23255016       3.18534677       0.09839336
O       -1.23286697       1.64030551      -1.43147266
O        2.24862283       2.93659852       1.21672291
N        0.42695863      -2.65348867      -0.31667410
N       -2.15758207      -0.89480886      -0.94626381
N       -3.75694576       1.01803094       0.23436216
N       -0.56781909       2.39142235       0.58904406
N        1.94083560       1.72958825      -0.66825596
N        3.04812138      -0.49817583       0.55455134
C        1.87511646      -1.07745039       0.86823548
C        1.67167875      -2.53101150       0.43256607
C        1.43631177      -3.43614652       1.64182424
C        0.58453780      -4.55909173       1.05930327
C       -0.33530987      -3.82781554       0.08153264
C        0.10056383      -1.70458615      -1.19838280
C       -1.31803634      -1.73698777      -1.77945541
C       -1.32156201      -1.19615835      -3.20366904
C       -2.97939613      -1.36970365      -0.00990499
C       -3.77474753      -0.31406802       0.79016245
C       -5.22190470      -0.78927964       0.92090185
C       -2.95222718       2.07475733       0.49367536
C       -1.68343385       1.81902208       1.32052616
C       -1.80860563       2.50647106       2.67434637
C       -0.40673192       2.19230292      -0.72028459
C        0.96314870       2.64317001      -1.24096077
C        1.03168621       2.58242415      -2.75735705
C        2.43666360       1.92392859       0.56281794
C        3.35818984       0.81790892       1.08681496
C        4.80508741       1.05962280       0.64934483
C        4.88518540       0.30311255      -0.67358364
C        4.03438982      -0.94123161      -0.41504934
H        2.50812077      -2.89104697      -0.17558195
H        2.36718041      -3.78642824       2.08325618
H        0.87031264      -2.87793552       2.38912363
H        1.21877298      -5.27006207       0.52688184
H        0.02351307      -5.09604493       1.82033819
H       -0.56415680      -4.44378434      -0.79258515
H       -1.27623909      -3.53568991       0.55505134
H       -2.02561207       0.11096754      -1.08211990
H       -1.72485823      -2.75111323      -1.73721522
H       -0.99709083      -0.15891368      -3.18987799
H       -2.32401963      -1.24770463      -3.61968797
H       -0.64463453      -1.77335739      -3.82846800
H       -4.53486079       1.24460411      -0.37179979
H       -3.32703437      -0.29711514       1.79143300
H       -5.77434952      -0.14790901       1.60286407
H       -5.23024700      -1.80849107       1.29683505
H       -5.70913753      -0.77846067      -0.05201287
H        0.17724982       2.82036689       1.12447902
H       -1.49333799       0.74631441       1.44971207
H       -2.61328312       2.05825489       3.25230525
H       -2.02869513       3.56118922       2.52637824
H       -0.87867599       2.40504293       3.22894755
H        1.88906358       0.78826846      -1.04543512
H        1.18685636       3.64747703      -0.86610418
H        2.00045055       2.92762321      -3.10916909
H        0.25082906       3.20492526      -3.18435169
H        0.87473882       1.55705570      -3.08334243
H        3.24388520       0.81551595       2.17595243
H        5.49165324       0.62808828       1.37868632
H        5.02297202       2.12049153       0.54829819
H        5.90637706       0.04993911      -0.95064086
H        4.44221716       0.89999388      -1.47038557
H        3.54689994      -1.29584094      -1.32585806
H        4.64567331      -1.74798829       0.00821376
68
Properties=species:S:1:pos:R:3 energy=-1029089.8526531352 pbc="F F F"
O        1.10381208      -0.45136806       1.27914182
O        0.84283657      -0.82415031      -1.71512347
O       -3.24681803      -2.56738652       0.19304945
O       -3.24507386       3.16752796       0.20558628
O       -1.31767802       1.62582250      -1.41754699
O        2.14045112       2.80580328       1.26637423
N        0.41830810      -2.55124002      -0.37910030
N       -2.24511118      -0.89122792      -0.94010386
N       -3.84575081       1.01603867       0.25656084
N       -0.60520849       2.25918878       0.62662239
N        1.91612584       1.71345786      -0.69938292
N        3.20301300      -0.50295809       0.48831172
C        1.98675742      -1.04223882       0.68372059
C        1.77868548      -2.45813120       0.13366648
C        1.85385850      -3.51323885       1.24367330
C        0.39033887      -3.69564744       1.64181453
C       -0.33363315      -3.58574810       0.30401576
C        0.03971368      -1.64974474      -1.29235098
C       -1.40974372      -1.71785526      -1.79085865
C       -1.48905949      -1.19904827      -3.22232372
C       -3.09675264      -1.37670956      -0.03929155
C       -3.90516792      -0.33430663       0.76382604
C       -5.36312748      -0.78991856       0.82117407
C       -3.00037738       2.03176161       0.54944077
C       -1.73131333       1.69365975       1.34596692
C       -1.81371855       2.32387556       2.73078907
C       -0.46847424       2.12260304      -0.69197824
C        0.88914369       2.60285183      -1.22079524
C        0.92568328       2.57965962      -2.73959735
C        2.41334968       1.86668008       0.53718439
C        3.48106283       0.85189864       0.94286514
C        4.83305925       1.18647687       0.30580574
C        5.50788052      -0.17775085       0.20462055
C        4.35001092      -1.10106402      -0.17100889
H        2.47995541      -2.64845945      -0.68380060
H        2.26134572      -4.44476506       0.84753481
H        2.47511037      -3.18355966       2.07515594
H        0.20122286      -4.64159403       2.14377470
H        0.08231248      -2.87548725       2.29013912
H       -0.24903538      -4.52592140      -0.25714682
H       -1.38677356      -3.33179851       0.41451030
H       -2.12009359       0.11664839      -1.07298605
H       -1.77734145      -2.74674083      -1.72452622
H       -2.50667208      -1.28461817      -3.59380093
H       -0.82330838      -1.76724329      -3.86670560
H       -1.19102034      -0.15387627      -3.23718860
H       -4.62178874       1.29449572      -0.32984815
H       -3.49767697      -0.35904465       1.78258543
H       -5.93307081      -0.16296456       1.50220375
H       -5.40114753      -1.82077149       1.16219007
H       -5.81050303      -0.73913135      -0.16945727
H        0.15980851       2.64500762       1.16910440
H       -1.58157219       0.60986117       1.42423782
H       -2.62368138       1.87696389       3.30252497
H       -2.00098712       3.39060099       2.63247423
H       -0.87853162       2.16932846       3.26374402
H        1.93801165       0.80325260      -1.14766723
H        1.09157695       3.60500324      -0.82679482
H        0.12088509       3.19291643      -3.13408005
H        0.78431916       1.55801333      -3.08426249
H        1.87806194       2.95561366      -3.10437011
H        3.54022032       0.87392432       2.03878979
H        5.39632874       1.90062432       0.90093507
H        4.67540021       1.60454383      -0.68955731
H        5.91607993      -0.46633230       1.17367083
H        6.30711582      -0.19956240      -0.53268002
H        4.19957090      -1.11210453      -1.25762067
H        4.51625863      -2.12286025       0.17653257
68
Properties=species:S:1:pos:R:3 energy=-1029091.7771602436 pbc="F F F"
O        1.22577944      -0.35742656       1.64462603
O        1.02641564      -0.93261292      -1.60775233
O       -3.41628383      -2.61561946      -0.19833620
O       -3.14978610       3.09986821       0.31255896
O       -1.25392839       1.62625466      -1.41031358
O        2.36960721       2.93713294       1.19237302
N        0.33616589      -2.43845228      -0.11896039
N       -2.16776670      -0.90356420      -0.98202879
N       -3.80845305       0.96752113       0.22150817
N       -0.53444962       2.12458018       0.66523688
N        1.97019879       1.72498311      -0.66943598
N        3.15851901      -0.47348211       0.51678054
C        1.98610546      -0.98483742       0.92522479
C        1.65176696      -2.42023314       0.51715279
C        1.49142805      -3.31885142       1.74684374
C        0.33434301      -4.23644434       1.36158723
C       -0.58786684      -3.28491686       0.60875644
C        0.12460693      -1.64528289      -1.17606941
C       -1.27077567      -1.68289827      -1.81154899
C       -1.23123676      -1.10334857      -3.22037313
C       -3.15297511      -1.42675346      -0.24992887
C       -3.92055669      -0.41297783       0.63337585
C       -5.39404649      -0.81102249       0.68275021
C       -2.93518323       1.93780436       0.58021581
C       -1.66757870       1.52027710       1.34377508
C       -1.73250964       2.03658220       2.77527866
C       -0.40648000       2.09214469      -0.66181792
C        0.93949249       2.61825100      -1.17165945
C        0.98107866       2.65183686      -2.69079510
C        2.54848006       1.93461565       0.52434968
C        3.53656170       0.85344970       0.97453922
C        4.92827410       1.07408736       0.37737753
C        4.88916936       0.24277211      -0.90220325
C        4.05840592      -0.97833358      -0.50479287
H        2.39009824      -2.82061600      -0.18301075
H        2.40816788      -3.85591274       1.98117110
H        1.20901269      -2.70279218       2.60210882
H        0.68239245      -5.02847675       0.69692675
H       -0.15181499      -4.68734573       2.22312901
H       -1.28681072      -3.79358830      -0.05339167
H       -1.16718379      -2.68039591       1.31513810
H       -2.03710144       0.10900409      -1.05727164
H       -1.64258286      -2.71311230      -1.82707523
H       -0.47901010      -1.61373859      -3.81580023
H       -0.98421642      -0.04643600      -3.16592774
H       -2.20242028      -1.21592659      -3.69451082
H       -4.57684418       1.31204336      -0.33976886
H       -3.49810666      -0.52255668       1.64109670
H       -5.85415709      -0.66185143      -0.29179038
H       -5.92706198      -0.22022102       1.42329632
H       -5.46952186      -1.86448575       0.93732389
H        0.20721267       2.50867247       1.23511111
H       -1.53484045       0.43153521       1.33725876
H       -2.55680431       1.56930260       3.30897593
H       -1.88641236       3.11309327       2.76698793
H       -0.80298182       1.80600897       3.29046142
H        1.95164743       0.79454391      -1.07490572
H        1.12701546       3.60862822      -0.74260483
H        0.88086130       1.64077557      -3.07872675
H        1.92005625       3.07694045      -3.03549343
H        0.15571625       3.24965169      -3.06603721
H        3.54253639       0.88381928       2.06942018
H        5.68893001       0.69064854       1.05844935
H        5.12442073       2.12814577       0.19358920
H        5.88187241      -0.03444946      -1.25055569
H        4.38312130       0.79701675      -1.69219440
H        3.49490122      -1.37381641      -1.35209077
H        4.69632600      -1.76753101      -0.08860124
68
Properties=species:S:1:pos:R:3 energy=-1029089.7373248365 pbc="F F F"
O        1.23843133      -0.18831153       1.44192458
O        1.02076827      -0.91716458      -1.66171715
O       -3.43136612      -2.63386455      -0.23129973
O       -3.18856988       3.06952691       0.39733015
O       -1.32239402       1.63974394      -1.39093622
O        2.28275155       2.83607323       1.22668310
N        0.32054172      -2.34822245      -0.10661853
N       -2.19953432      -0.89759345      -0.98840800
N       -3.85056801       0.94178541       0.24950688
N       -0.57105340       2.07811532       0.68744188
N        1.93564170       1.76200917      -0.73082499
N        3.24114751      -0.46781206       0.47467652
C        2.02378689      -0.89849953       0.83537846
C        1.65230388      -2.34139948       0.49146529
C        1.51195749      -3.20375159       1.74889655
C        0.31598741      -4.09750577       1.42879413
C       -0.60321231      -3.14347531       0.67464053
C        0.11167609      -1.59618593      -1.19499586
C       -1.28742239      -1.65388880      -1.82174426
C       -1.26494014      -1.07080447      -3.22951348
C       -3.18165233      -1.44096261      -0.26809117
C       -3.96450744      -0.44867563       0.62572463
C       -5.43745586      -0.85132042       0.64303017
C       -2.97161704       1.89994129       0.62794078
C       -1.69629042       1.45894935       1.36475111
C       -1.74024395       1.94132214       2.80903951
C       -0.46303209       2.08223859      -0.64012608
C        0.86421347       2.64510888      -1.15927819
C        0.86259020       2.74938785      -2.67606762
C        2.52093871       1.91301306       0.47013607
C        3.63286297       0.90577867       0.76419978
C        4.86190922       1.13364514      -0.11845112
C        5.47357858      -0.26078567      -0.21632734
C        4.24784004      -1.16887409      -0.30177472
H        2.35330211      -2.77039189      -0.22994030
H        2.42040442      -3.76248427       1.96507851
H        1.27879099      -2.56040167       2.59887916
H        0.61971544      -4.91916058       0.77865261
H       -0.15446011      -4.50783752       2.31892786
H       -1.33826998      -3.65141624       0.05188480
H       -1.14054556      -2.49916539       1.38014586
H       -2.08337851       0.11809051      -1.05375729
H       -1.63531849      -2.69306901      -1.83911394
H       -0.49915098      -1.55917416      -3.82593994
H       -1.04618577      -0.00776658      -3.17258964
H       -2.23304535      -1.20843462      -3.70340174
H       -4.62260087       1.30433821      -0.29503513
H       -3.55731877      -0.58142804       1.63724620
H       -5.98360194      -0.27978686       1.38914612
H       -5.51362878      -1.91075056       0.87143822
H       -5.88278953      -0.68006356      -0.33474874
H        0.19537506       2.41655427       1.25535099
H       -1.56929806       0.37011147       1.33006494
H       -2.55348213       1.45816755       3.34575931
H       -1.89822323       3.01702994       2.82784428
H       -0.80043288       1.70451662       3.30209314
H        1.95634148       0.86048058      -1.19658271
H        1.04285398       3.61994298      -0.69185093
H        0.01936204       3.35240568      -2.99970290
H        0.76373066       1.75649504      -3.10856205
H        1.78611820       3.20285971      -3.02629080
H        3.87982457       1.00290785       1.82934917
H        5.53952838       1.86765233       0.31039334
H        4.54727042       1.47813193      -1.10446586
H        6.04088774      -0.48445964       0.68770850
H        6.12869461      -0.37372360      -1.07715099
H        3.90858433      -1.27773050      -1.33881526
H        4.45099764      -2.15770173       0.11527261
68
Properties=species:S:1:pos:R:3 energy=-1029091.516769726 pbc="F F F"
O        1.26642145      -0.30494997       1.67103344
O        1.03820272      -0.93258925      -1.60220786
O       -3.43246727      -2.62136957      -0.24675546
O       -3.12117791       3.07684800       0.38358370
O       -1.26603702       1.63277553      -1.40740452
O        2.42807198       2.95446470       1.17138120
N        0.32122337      -2.39177402      -0.07936918
N       -2.17818104      -0.90078091      -1.00155895
N       -3.82122328       0.96212281       0.21514387
N       -0.52543124       2.03993147       0.68024106
N        1.97403880       1.72948424      -0.66962318
N        3.17426671      -0.46561215       0.50741716
C        2.00234561      -0.95317536       0.94430717
C        1.63624372      -2.38714369       0.55942156
C        1.45624926      -3.26039770       1.80459539
C        0.28210402      -4.16215750       1.43432857
C       -0.61975124      -3.20666385       0.66235596
C        0.12682500      -1.62604299      -1.15983592
C       -1.26053359      -1.67440769      -1.81320736
C       -1.20427266      -1.10027824      -3.22373390
C       -3.17433055      -1.43087246      -0.28952724
C       -3.96305472      -0.42742978       0.58608248
C       -5.44146629      -0.80935498       0.56783389
C       -2.92855432       1.90170277       0.60669378
C       -1.66431532       1.43043510       1.34443924
C       -1.70602140       1.88985202       2.79593757
C       -0.41003788       2.06518075      -0.64822120
C        0.92882671       2.61691429      -1.14936111
C        0.96353739       2.68605533      -2.66782160
C        2.58482212       1.94677326       0.50694308
C        3.57851623       0.86268044       0.93903886
C        4.95410025       1.06449651       0.29930309
C        4.87568719       0.21184236      -0.96435618
C        4.04713656      -0.99601723      -0.52460171
H        2.36725883      -2.81509065      -0.13209074
H        2.36205720      -3.81069909       2.05028789
H        1.18491880      -2.62314202       2.64788684
H        0.61514485      -4.97315318       0.78510921
H       -0.21416654      -4.58723670       2.30320025
H       -1.32917708      -3.71292780       0.00948157
H       -1.18626494      -2.57693038       1.35760333
H       -2.05526790       0.11301178      -1.07721219
H       -1.62211293      -2.70852541      -1.83102158
H       -0.43777889      -1.60575273      -3.80487878
H       -0.96792313      -0.04082656      -3.17015164
H       -2.16673054      -1.22418048      -3.71259927
H       -4.58531694       1.34241362      -0.32851329
H       -3.58160225      -0.56779280       1.60675155
H       -5.99709757      -0.23110097       1.30165206
H       -5.53791452      -1.86779487       0.79320879
H       -5.86101063      -0.63085091      -0.42001984
H        0.22061193       2.39720226       1.26057487
H       -1.55509585       0.34029386       1.29468284
H       -2.53520383       1.41873080       3.31865591
H       -1.83676666       2.96877970       2.83287734
H       -0.77653874       1.61846908       3.29098266
H        1.95368938       0.79906912      -1.07486169
H        1.10408066       3.60052501      -0.69965371
H        1.89442442       3.13366432      -3.00576186
H        0.12746267       3.27956667      -3.02572011
H        0.87744162       1.68305722      -3.07939023
H        3.61726587       0.90496660       2.03290145
H        5.73159477       0.68862416       0.96542859
H        5.15063675       2.11412183       0.09199503
H        5.85697300      -0.07864189      -1.33364281
H        4.35298086       0.75587372      -1.75059429
H        3.46170106      -1.40319378      -1.35101545
H        4.68961503      -1.78118682      -0.10779024
68
Properties=species:S:1:pos:R:3 energy=-1029089.0646506536 pbc="F F F"
O        1.09602592      -0.31673344       1.33575468
O        0.90088540      -0.82676614      -1.60004534
O       -3.24134879      -2.57484726       0.14770289
O       -3.25267572       3.16621966       0.20414649
O       -1.31087818       1.64505266      -1.41863505
O        2.16585819       2.84074997       1.23866885
N        0.39088741      -2.53929187      -0.27142218
N       -2.20362174      -0.88502721      -0.93429242
N       -3.82587697       1.00770800       0.25663888
N       -0.60177368       2.29443626       0.62194703
N        1.91508845       1.75672375      -0.72976468
N        3.17222047      -0.48250809       0.50271093
C        1.94923349      -0.97397947       0.76515641
C        1.68944463      -2.43227718       0.38081388
C        1.54139966      -3.31877625       1.61691838
C        0.59837713      -4.41505631       1.13129674
C       -0.38571227      -3.65517374       0.24278214
C        0.07444730      -1.65037838      -1.21997613
C       -1.35291872      -1.70232614      -1.77893424
C       -1.38349567      -1.15935139      -3.20242192
C       -3.07362265      -1.38321295      -0.05592250
C       -3.87198397      -0.34321235       0.76375126
C       -5.32714300      -0.80217523       0.85146448
C       -2.99289579       2.03385910       0.54868975
C       -1.71847465       1.71400659       1.34425945
C       -1.80666143       2.34531838       2.72819403
C       -0.46678977       2.15616286      -0.69626303
C        0.88254218       2.65067361      -1.23087346
C        0.90768980       2.65314553      -2.75025008
C        2.42602723       1.90413183       0.50270008
C        3.50091821       0.88618506       0.87913654
C        4.81361386       1.16793390       0.14355695
C        5.46471907      -0.20919301       0.07177731
C        4.27643881      -1.13710928      -0.17664345
H        2.45958073      -2.80823650      -0.30073021
H        2.49750219      -3.69972719       1.97083353
H        1.06986064      -2.73873642       2.41163193
H        1.15206458      -5.14881266       0.54305468
H        0.09700397      -4.92981677       1.94734392
H       -0.75520524      -4.27757616      -0.57542228
H       -1.24685906      -3.29905487       0.81273082
H       -2.08017388       0.12444029      -1.05496112
H       -1.73788339      -2.72575915      -1.73647048
H       -2.38650161      -1.24359258      -3.61189828
H       -0.69134675      -1.71242077      -3.83211550
H       -1.09296329      -0.11214433      -3.18881229
H       -4.60469465       1.27696309      -0.33046518
H       -3.44267050      -0.36604748       1.77355097
H       -5.88332737      -0.17996178       1.54801818
H       -5.35551716      -1.83500088       1.18726199
H       -5.79647102      -0.74763513      -0.12870970
H        0.16591613       2.67585899       1.16344532
H       -1.55244662       0.63284836       1.42451259
H       -2.61072493       1.88985641       3.30152027
H       -2.00629283       3.40968079       2.62866677
H       -0.86888035       2.20167566       3.25958650
H        1.92097414       0.84172537      -1.16906690
H        1.08613204       3.64712510      -0.82360593
H        1.85600317       3.03917973      -3.11505550
H        0.09779852       3.27010989      -3.12827649
H        0.76826152       1.63789814      -3.11379255
H        3.63158088       0.94886472       1.96739729
H        5.42166860       1.90240579       0.66555773
H        4.59863793       1.53733755      -0.86016342
H        5.93345449      -0.45132964       1.02610122
H        6.21329279      -0.28150491      -0.71399078
H        4.06064980      -1.22032601      -1.24863127
H        4.45811939      -2.13414577       0.23041359
68
Properties=species:S:1:pos:R:3 energy=-1029087.8403303986 pbc="F F F"
O        0.76529846      -0.98034732       1.38903046
O        0.89633319      -0.93975742      -1.66959429
O       -2.56349173      -2.43659416       0.53860776
O       -3.91794369       3.01960885      -0.24610353
O       -1.42674051       1.82002197      -1.40690307
O        1.94896117       2.76559346       1.37782905
N        0.49138330      -2.89853050      -0.69033184
N       -1.98202839      -0.89678552      -1.01198639
N       -3.42845900       0.95697719       0.44998162
N       -0.76968954       2.79874334       0.52708623
N        1.69886997       1.53239741      -0.49407058
N        2.85691246      -0.66540358       0.65436799
C        1.72507902      -1.38443972       0.75531979
C        1.70594818      -2.77228248       0.10687445
C        1.55274354      -3.86992151       1.16101083
C        0.76748569      -4.94559441       0.41748429
C       -0.23163870      -4.12688335      -0.39661111
C        0.11815719      -1.86749733      -1.45050825
C       -1.33505175      -1.81544161      -1.93335813
C       -1.44307461      -1.28549094      -3.35411905
C       -2.42230964      -1.27734644       0.19710237
C       -2.72937522      -0.10164014       1.14077283
C       -3.53013177      -0.58478749       2.34948567
C       -3.18956630       2.28582991       0.38484142
C       -2.03428194       2.83269680       1.24446268
C       -2.34435065       4.27555806       1.64076458
C       -0.57431215       2.35053731      -0.71478751
C        0.88203283       2.51423739      -1.18639399
C        1.00315047       2.30286416      -2.68647262
C        2.12983675       1.72828589       0.75553819
C        2.96821654       0.59799333       1.36162323
C        4.45716122       0.93681374       1.25994293
C        4.82393412       0.37215410      -0.10970375
C        4.01754609      -0.92614094      -0.17888514
H        2.58416388      -2.93812912      -0.52472942
H        2.51244770      -4.21804742       1.53773875
H        0.95776955      -3.47977327       1.98808852
H        1.43160602      -5.50591162      -0.24329510
H        0.27242463      -5.64205388       1.08981983
H       -0.51540487      -4.62952917      -1.32442507
H       -1.12963011      -3.90453649       0.18781485
H       -1.84141759       0.09512839      -1.20549597
H       -1.81679000      -2.79046901      -1.83169542
H       -2.48742898      -1.20430825      -3.64229914
H       -0.93197175      -1.95162003      -4.04491601
H       -0.98789068      -0.30012962      -3.40967837
H       -4.22720211       0.66442335      -0.09796194
H       -1.74454978       0.25095849       1.46674141
H       -3.00110126      -1.40289278       2.82842715
H       -4.50460790      -0.94617261       2.03006250
H       -3.66863110       0.22452748       3.06190142
H        0.03576460       3.16207142       1.03112944
H       -1.93365463       2.22442226       2.15219626
H       -1.50372346       4.70543307       2.18031720
H       -3.22714625       4.30417996       2.27347883
H       -2.54406705       4.86196543       0.74784852
H        1.66130829       0.59810105      -0.89278805
H        1.23787742       3.50911460      -0.89333491
H        0.77628331       1.26592067      -2.92082639
H        2.01129187       2.53122375      -3.02273078
H        0.29655706       2.94183216      -3.20818932
H        2.63066362       0.47784478       2.39607954
H        5.01232691       0.42517397       2.04690340
H        4.63146315       2.00705022       1.34393163
H        5.89183820       0.19689099      -0.22058335
H        4.49679178       1.05658896      -0.89225148
H        3.71531363      -1.16085772      -1.20222615
H        4.59467399      -1.76464548       0.22922058
68