41
Properties=species:S:1:pos:R:3 energy=-692266.906613828 pbc="F F F"
O       -1.28212036       3.05660796       1.08221535
C       -2.01324529       2.45453932       0.34012352
O       -1.97755016       2.60607222      -0.96569513
H       -2.59125353       1.97458449      -1.43826768
C       -3.05967241       1.45423009       0.86210433
H       -4.04455693       1.78747508       0.51032685
H       -3.04173628       1.45867360       1.95121488
N       -2.82119277       0.10050741       0.39688926
H       -2.46573975      -0.60456638       1.04963130
C       -3.00233922      -0.26975462      -0.87188127
O       -3.32420332       0.50359398      -1.76836596
C       -2.77661617      -1.76193892      -1.11862623
H       -3.04148926      -1.98717268      -2.15131726
H       -3.42623857      -2.32567360      -0.43877899
N       -1.40270595      -2.14916933      -0.88520261
H       -0.78778838      -2.35823461      -1.66215783
C       -0.86953124      -2.31140623       0.33354834
O       -1.47697192      -2.07068103       1.36808794
C        0.56009125      -2.84737486       0.31393362
H        0.48653882      -3.91214394       0.57155174
N        1.10162798      -2.74556958      -1.03427460
H        1.40873213      -1.78931863      -1.19893709
H        1.91993362      -3.33660469      -1.12815935
C        1.39477192      -2.13076535       1.40146083
H        2.37507417      -2.60794030       1.46735949
H        0.87883137      -2.25128179       2.35444708
C        1.54919909      -0.67845709       1.08872979
C        0.71960296       0.33343769       1.48295874
H       -0.14390762       0.28216593       2.11744873
N        1.14361269       1.52417792       0.97179884
H        0.66524889       2.40393082       1.09743774
C        2.25702274       1.30989977       0.21845655
C        3.04273560       2.19869133      -0.50557213
H        2.79922279       3.24982860      -0.53863517
C        4.13585455       1.69085011      -1.17195320
H        4.76789838       2.35337420      -1.74443614
C        4.45208191       0.32961126      -1.11778101
H        5.32443278      -0.02637290      -1.64648224
C        3.67854748      -0.55756581      -0.40573186
H        3.94271524      -1.60534396      -0.36406170
C        2.55498513      -0.07622161       0.27055892
41
Properties=species:S:1:pos:R:3 energy=-692264.0803808447 pbc="F F F"
O       -0.62799469       0.68017432      -1.58770062
C       -0.77624272       1.71202215      -0.98840626
O       -0.43348411       2.89880511      -1.48980366
H       -0.08210471       2.80260524      -2.38927229
C       -1.38637667       1.83877688       0.39481344
H       -2.27182999       2.47703485       0.30816706
H       -0.66438112       2.30753881       1.06652660
N       -1.79321078       0.55474202       0.89618396
H       -1.07521731      -0.04335003       1.28495237
C       -2.94914013      -0.00029293       0.46109477
O       -3.82191325       0.62281533      -0.10168741
C       -3.02638367      -1.50436692       0.73768320
H       -4.00252740      -1.88135576       0.43056742
H       -2.86221447      -1.69801288       1.80119167
N       -1.98253232      -2.17558609      -0.00188248
H       -2.07066404      -2.26429046      -1.00581928
C       -0.74828369      -2.34382238       0.50220561
O       -0.47021423      -2.13291601       1.67048677
C        0.26035070      -2.86931354      -0.51952110
H        0.22554252      -3.96607717      -0.45517980
N       -0.17350142      -2.49267735      -1.85368970
H        0.45090350      -2.88795603      -2.54806002
H       -0.13966191      -1.47977271      -1.94844721
C        1.69295133      -2.41881097      -0.13699809
H        2.40677007      -3.02947777      -0.69619317
H        1.82666677      -2.60944710       0.92799858
C        1.94886596      -0.97648296      -0.42594162
C        2.35288086      -0.45011144      -1.61883694
H        2.55879829      -0.94799806      -2.54807117
N        2.50603318       0.90713148      -1.51484348
H        2.83457777       1.51333712      -2.24656599
C        2.20604989       1.28756677      -0.23938065
C        2.22419386       2.54408266       0.35299723
H        2.50953146       3.42225931      -0.20769093
C        1.86631562       2.62689959       1.68164703
H        1.87204167       3.58764696       2.17525373
C        1.49825452       1.48781337       2.40592656
H        1.22572052       1.59660933       3.44547398
C        1.48215908       0.23877440       1.82502064
H        1.19241564      -0.63389244       2.38901357
C        1.83877598       0.12397002       0.48097392
41
Properties=species:S:1:pos:R:3 energy=-692263.9186389457 pbc="F F F"
O       -0.36613903       0.74785032      -1.02101349
C       -0.88669039       1.71326748      -0.53117037
O       -0.34242811       2.92776545      -0.53934817
H        0.53625722       2.90847132      -0.96102183
C       -2.23941747       1.69628252       0.16464611
H       -2.95667766       2.19783594      -0.49481168
H       -2.18139982       2.23985344       1.10898974
N       -2.68945654       0.34591188       0.36634793
H       -2.20253689      -0.21667516       1.05812422
C       -3.31227580      -0.31140110      -0.64198659
O       -3.82281160       0.23663115      -1.59260994
C       -3.29058386      -1.83085500      -0.44552556
H       -3.90942330      -2.30744390      -1.20587352
H       -3.65975608      -2.07927378       0.55338856
N       -1.93108032      -2.31303782      -0.55760602
H       -1.52709329      -2.43223729      -1.47777397
C       -1.05592011      -2.25399458       0.45975068
O       -1.36763289      -1.91766498       1.59208180
C        0.35194909      -2.68713479       0.05437434
H        0.36177185      -3.78735980       0.06425667
N        0.57353976      -2.26298790      -1.31823492
H        1.49190009      -2.55543821      -1.63320265
H        0.53805900      -1.24794142      -1.37135124
C        1.39456786      -2.19902477       1.08777911
H        2.36760337      -2.62017864       0.82229272
H        1.09836967      -2.58670476       2.06335976
C        1.49285229      -0.71193549       1.16226284
C        0.82700328       0.09967109       2.03218562
H        0.12854242      -0.17375366       2.79856820
N        1.15598714       1.41057466       1.80597604
H        0.81889129       2.19795223       2.33290977
C        2.05510640       1.46952235       0.78224335
C        2.66499474       2.56447855       0.18110904
H        2.47669806       3.56935208       0.53317143
C        3.52810038       2.32027242      -0.86717126
H        4.01967519       3.14790335      -1.35712529
C        3.78399693       1.01830120      -1.30437765
H        4.47105665       0.86886292      -2.12417085
C        3.18104698      -0.06880281      -0.71253230
H        3.39747682      -1.06868258      -1.05915212
C        2.29253013       0.14358477       0.34123176
41
Properties=species:S:1:pos:R:3 energy=-692263.4025466105 pbc="F F F"
O       -1.69961757       3.00684817       1.83550237
C       -1.89348068       2.55231600       0.73912951
O       -1.27158471       3.00062685      -0.33124726
H       -1.46040511       2.44241715      -1.14239131
C       -2.90268343       1.41687641       0.49612630
H       -3.65401037       1.79258669      -0.21149723
H       -3.38440040       1.17355643       1.44207801
N       -2.30200505       0.20828334      -0.03831323
H       -2.31592569      -0.64610756       0.52675071
C       -1.80835124       0.12338804      -1.27368750
O       -1.69987079       1.08015898      -2.03489581
C       -1.42835849      -1.29355486      -1.70409807
H       -1.06186975      -1.24749175      -2.72967333
H       -2.34085022      -1.90178112      -1.66862586
N       -0.42290242      -1.91965583      -0.87803037
H        0.53239994      -1.96154668      -1.20982800
C       -0.64439266      -2.39062856       0.35585780
O       -1.71121294      -2.27595630       0.94440538
C        0.55917826      -3.09224524       0.97212826
H        0.16546162      -3.88841797       1.62712782
N        1.42098130      -3.60743897      -0.08369295
H        0.94671725      -4.34164564      -0.59967127
H        2.26129637      -4.00838694       0.31930346
C        1.32677211      -2.08282372       1.86056399
H        2.36027864      -2.43029551       1.94666860
H        0.88021230      -2.09138587       2.85574528
C        1.30062561      -0.67487811       1.35800695
C        0.72483201       0.38233287       2.00450030
H        0.20748714       0.39843232       2.94468938
N        0.88517465       1.52792454       1.28189538
H        0.54404703       2.43592320       1.55211641
C        1.55390838       1.23356479       0.13205984
C        1.91500602       2.05133913      -0.93165864
H        1.66141141       3.10006363      -0.93095825
C        2.59107956       1.47116674      -1.98163668
H        2.88286938       2.07523208      -2.82763020
C        2.91253756       0.11027439      -1.97358768
H        3.45457134      -0.30315086      -2.81211616
C        2.55465163      -0.70743653      -0.92567926
H        2.81200041      -1.75635792      -0.92495057
C        1.85189870      -0.15201566       0.14675659
41
Properties=species:S:1:pos:R:3 energy=-692253.2239160121 pbc="F F F"
O       -1.44744778       3.19137085       0.78588482
C       -2.41969570       2.58497475       0.40759209
O       -3.34923767       3.10986890      -0.38540112
H       -3.02901518       3.93773788      -0.77570019
C       -2.87205743       1.24563293       0.99630834
H       -3.96727719       1.23117968       1.00319114
H       -2.49576235       1.17710569       2.02164712
N       -2.37794211       0.12992360       0.21913052
H       -2.47337067      -0.82151320       0.58271533
C       -1.69506006       0.32718469      -0.90962741
O       -1.46114637       1.43726528      -1.35403861
C       -1.28077715      -0.96592968      -1.62227009
H       -0.83695394      -0.70008430      -2.58121170
H       -2.18813048      -1.55864958      -1.78623467
N       -0.33149612      -1.75939842      -0.87654162
H        0.64730329      -1.72278114      -1.13245474
C       -0.62054316      -2.43297219       0.24453241
O       -1.73174797      -2.46838944       0.75585280
C        0.58174445      -3.15300440       0.84304361
H        0.19699569      -4.00309177       1.43262769
N        1.48388016      -3.55977245      -0.22431331
H        2.30666323      -4.00590670       0.16673861
H        1.03002778      -4.22986267      -0.83632536
C        1.30114913      -2.17934055       1.81188725
H        2.31558337      -2.55176316       1.97442790
H        0.77144040      -2.19201196       2.76563381
C        1.33366585      -0.77516688       1.30312966
C        0.54372710       0.24973084       1.74360484
H       -0.15962969       0.24743203       2.55520804
N        0.77276742       1.38116653       1.01883597
H        0.22407357       2.22962375       1.07265575
C        1.69797334       1.10248329       0.06058633
C        2.22944637       1.91338075      -0.93477974
H        1.90348694       2.93630000      -1.04199557
C        3.16956648       1.36054393      -1.77532043
H        3.60167572       1.96057610      -2.56271650
C        3.58106255       0.03144352      -1.63025528
H        4.32578600      -0.36155281      -2.30763224
C        3.05874698      -0.77949011      -0.64884837
H        3.37732565      -1.80556832      -0.54936373
C        2.09616808      -0.25009565       0.21377554
41
Properties=species:S:1:pos:R:3 energy=-692264.0882643635 pbc="F F F"
O       -2.64705561       2.32604630      -2.09677485
C       -2.52360027       2.16949244      -0.91482234
O       -1.71419436       2.91138494      -0.17740860
H       -1.65852910       2.57848113       0.76724960
C       -3.31646279       1.10068149      -0.13876140
H       -3.99292430       0.60109648      -0.83076270
H       -3.90029418       1.62135194       0.63178171
N       -2.47796167       0.09734885       0.49240104
H       -2.52215225      -0.86707559       0.15778293
C       -1.68026449       0.35559650       1.53014063
O       -1.49364405       1.48085295       1.98401240
C       -1.01539952      -0.88224533       2.12922225
H       -1.79959755      -1.59858755       2.39770557
H       -0.46692930      -0.58366694       3.02266543
N       -0.10163432      -1.53426524       1.21312345
H        0.87091553      -1.26222328       1.25059602
C       -0.52115290      -2.29351584       0.18257929
O       -1.70643763      -2.49241593      -0.04895171
C        0.59031522      -2.90948281      -0.66642529
H        1.46242435      -3.09412299      -0.03141238
N        0.19570196      -4.16439243      -1.27226883
H       -0.67813851      -4.03257049      -1.77383382
H        0.02868693      -4.86724829      -0.55977948
C        0.96618975      -1.90940982      -1.78496277
H        0.16386076      -1.90916240      -2.52499300
H        1.87212743      -2.28002125      -2.26793717
C        1.15980029      -0.52027454      -1.27674769
C        0.38862771       0.56684898      -1.57515218
H       -0.44247516       0.64015604      -2.25041998
N        0.82416103       1.66309095      -0.88719627
H        0.39741118       2.57464856      -0.92590779
C        1.88386053       1.30641389      -0.11044594
C        2.64529273       2.05589859       0.77805466
H        2.43452982       3.10165410       0.94182541
C        3.67245397       1.41697082       1.43705786
H        4.28368485       1.96897107       2.13509441
C        3.94798979       0.06386076       1.21552810
H        4.77045153      -0.39566888       1.74374995
C        3.19753207      -0.68670508       0.33908636
H        3.43049613      -1.72724730       0.16423578
C        2.13918189      -0.07083559      -0.33506946
41
Properties=species:S:1:pos:R:3 energy=-692263.2363380583 pbc="F F F"
O       -0.70811936       3.12580880       0.47705780
C       -1.20296462       2.14336229      -0.00933776
O       -0.53750439       1.30149289      -0.79548667
H        0.38896261       1.58568013      -0.90133321
C       -2.64548204       1.72005107       0.20427638
H       -3.23682772       2.11356093      -0.63229273
H       -3.00723680       2.16002728       1.13734054
N       -2.80886034       0.29195704       0.19879712
H       -2.35695045      -0.25557810       0.92703185
C       -3.28956990      -0.35643092      -0.88105632
O       -3.77841662       0.18998941      -1.84473982
C       -3.16123362      -1.87975105      -0.74463983
H       -3.66787195      -2.35790584      -1.58285339
H       -3.62315668      -2.19098525       0.19741124
N       -1.77496337      -2.29060197      -0.72885813
H       -1.30725655      -2.49948085      -1.60079603
C       -0.99410861      -2.22642845       0.36006882
O       -1.38605028      -1.83437666       1.44816328
C        0.42127750      -2.74632610       0.10050762
H        0.36608273      -3.84066887       0.19100243
N        0.77461465      -2.44709404      -1.27932857
H        0.90730906      -1.44562932      -1.38856494
H        1.64903890      -2.89845328      -1.52408561
C        1.41195015      -2.23287803       1.17029195
H        2.38433850      -2.70003216       0.99211685
H        1.04268480      -2.55377188       2.14476069
C        1.55411643      -0.74706505       1.16998779
C        0.91631180       0.12444050       2.00571010
H        0.22089841      -0.09647128       2.79144167
N        1.28105014       1.40986591       1.72141827
H        0.90912740       2.23945409       2.15289120
C        2.15043172       1.40072201       0.67130086
C        2.76791843       2.45377468       0.00465524
H        2.58028499       3.47621560       0.29532728
C        3.62014140       2.14077456      -1.03225655
H        4.11654177       2.93235563      -1.57286893
C        3.86659537       0.81189018      -1.39145854
H        4.55641455       0.60824668      -2.19707395
C        3.25464319      -0.23437762      -0.73925231
H        3.47218936      -1.25461791      -1.02061350
C        2.36438393       0.04712245       0.29977607
41
Properties=species:S:1:pos:R:3 energy=-692256.445148943 pbc="F F F"
O       -1.43200267       2.97041434       0.27768966
C       -2.56210782       2.55056778       0.32040982
O       -3.60546389       3.20473662      -0.17608899
H       -3.30971986       3.94211001      -0.73238680
C       -2.99756957       1.34114487       1.15105954
H       -4.08195241       1.40075812       1.29740159
H       -2.49187391       1.38817587       2.11913605
N       -2.64916431       0.10495061       0.48457238
H       -2.51661027      -0.75898638       1.01704997
C       -2.41412288       0.09141119      -0.82978032
O       -2.44440899       1.09645973      -1.51677280
C       -2.14968744      -1.30798214      -1.39959745
H       -2.11064683      -1.23107511      -2.48564201
H       -2.98982377      -1.94914474      -1.10629598
N       -0.91367759      -1.89106105      -0.92746210
H       -0.16540175      -2.06254198      -1.58473411
C       -0.72408597      -2.37351657       0.30704686
O       -1.55632594      -2.29484542       1.20099715
C        0.64498368      -3.01847519       0.52544137
H        0.45930360      -4.02523163       0.91549599
N        1.36631456      -3.12588037      -0.73484505
H        1.87181214      -2.26017642      -0.90932069
H        2.05623618      -3.86623258      -0.68448358
C        1.39198838      -2.18527789       1.60013545
H        2.37650809      -2.62564576       1.77272799
H        0.81907488      -2.22576666       2.52696576
C        1.51196648      -0.77199581       1.13242522
C        0.57696867       0.20877326       1.31074328
H       -0.31421960       0.17316787       1.90546410
N        0.92773007       1.33814370       0.63519691
H        0.33071047       2.14836274       0.53373614
C        2.10027924       1.10962100      -0.01651549
C        2.85292292       1.94124222      -0.83738070
H        2.51920292       2.94345103      -1.05983807
C        4.03039855       1.44313351      -1.34952185
H        4.63872275       2.06264077      -1.99181723
C        4.46404626       0.14819272      -1.04733037
H        5.40072728      -0.19961247      -1.45853937
C        3.72531122      -0.68363999      -0.23811964
H        4.08241015      -1.67683343      -0.00114157
C        2.51634383      -0.21456130       0.28279144
41
Properties=species:S:1:pos:R:3 energy=-692263.1138416731 pbc="F F F"
O       -1.22723317       3.42278845      -0.28596995
C       -2.10217702       2.60143389      -0.19449281
O       -2.97225784       2.37865454      -1.15262616
H       -3.58392901       1.61405343      -0.93942467
C       -2.28413475       1.75952695       1.08300118
H       -3.28164560       1.98966067       1.48125076
H       -1.52751896       2.05786114       1.80758917
N       -2.17141266       0.32898775       0.86783254
H       -1.38653151      -0.17677026       1.29088525
C       -3.07397229      -0.38248698       0.19373715
O       -4.02797592       0.10981986      -0.40238875
C       -2.84702991      -1.89524493       0.24104822
H       -3.65494955      -2.37729791      -0.30903007
H       -2.88660131      -2.20284663       1.29357962
N       -1.57770201      -2.30016708      -0.32289805
H       -1.56173082      -2.84767593      -1.17164646
C       -0.40282339      -2.15844438       0.31117654
O       -0.27934983      -1.56121361       1.36974657
C        0.76631689      -2.77528566      -0.44061079
H        1.58308776      -2.91081530       0.28508439
N        0.32404295      -4.00771495      -1.08459283
H        0.15447901      -4.72971112      -0.39155218
H        1.04477304      -4.34965189      -1.71139962
C        1.22235479      -1.77462443      -1.52389142
H        0.45826566      -1.74010004      -2.30330362
H        2.15044988      -2.14545484      -1.96688317
C        1.43231661      -0.40857864      -0.96138740
C        0.60749965       0.67089372      -1.10300509
H       -0.30294862       0.75585966      -1.66701969
N        1.10404481       1.74173060      -0.41922103
H        0.65465321       2.64404802      -0.36401040
C        2.26253454       1.37258464       0.19464829
C        3.12680874       2.10080820       1.00341221
H        2.92436435       3.13488551       1.23964875
C        4.24442013       1.45704920       1.48660254
H        4.93753985       1.99238585       2.11881640
C        4.50478467       0.11933858       1.17350632
H        5.39520558      -0.34599732       1.57110224
C        3.65344801      -0.60837934       0.37443508
H        3.86856331      -1.64013524       0.13599867
C        2.50987005       0.01447178      -0.12576108
41
Properties=species:S:1:pos:R:3 energy=-692263.3650331923 pbc="F F F"
O       -2.59114992       2.40122432      -2.06469435
C       -2.49119255       2.21133088      -0.88514007
O       -1.69684865       2.93261315      -0.11182013
H       -1.65619970       2.57189415       0.82369171
C       -3.29723198       1.12088319      -0.15521046
H       -3.95996459       0.64030952      -0.87349003
H       -3.89610482       1.61926324       0.61851016
N       -2.46974768       0.10075741       0.46303676
H       -2.50078384      -0.85477372       0.09900917
C       -1.69313048       0.32859228       1.52287320
O       -1.51308207       1.44049694       2.01141389
C       -1.05119132      -0.92893622       2.10861317
H       -1.84900816      -1.64266195       2.34235826
H       -0.52530416      -0.65308857       3.02258824
N       -0.11792997      -1.57083796       1.20639215
H        0.86217148      -1.35342475       1.31300940
C       -0.51154288      -2.30645505       0.15048931
O       -1.68788218      -2.45106936      -0.14882787
C        0.61793999      -2.91804955      -0.66185492
H        1.49436863      -3.05923899      -0.01937209
N        0.19517174      -4.21796129      -1.13688858
H        0.76514064      -4.52162890      -1.91811527
H       -0.77219365      -4.16638642      -1.44214753
C        0.97503346      -1.91400832      -1.79560591
H        0.16580908      -1.91996944      -2.53015188
H        1.88846516      -2.26620506      -2.28354605
C        1.15592909      -0.52381763      -1.28626033
C        0.37808382       0.55824522      -1.58610670
H       -0.45058245       0.62765078      -2.26480553
N        0.80292171       1.65521006      -0.89313871
H        0.37150405       2.56463614      -0.93046393
C        1.86025464       1.30335694      -0.11123311
C        2.61051189       2.05672319       0.78341068
H        2.39042082       3.10044787       0.94782140
C        3.63871242       1.42444415       1.44691691
H        4.24196691       1.97943926       2.14947860
C        3.92597385       0.07424543       1.22318199
H        4.74811988      -0.38097045       1.75565854
C        3.18625223      -0.67981465       0.34063021
H        3.42937582      -1.71842473       0.16712138
C        2.12694442      -0.07108270      -0.33800187
41
Properties=species:S:1:pos:R:3 energy=-692259.4791202197 pbc="F F F"
O       -0.86530747       3.40542958       1.04569308
C       -1.26038432       2.32896799       0.67990256
O       -1.49179626       1.35444170       1.53933194
H       -1.73654732       0.48412330       1.14617049
C       -1.52998176       2.03755550      -0.79807683
H       -1.03137703       2.81009803      -1.39130343
H       -2.61181145       2.09864779      -0.96671268
N       -1.11678305       0.72317474      -1.22080854
H       -0.13918275       0.48499870      -1.12926856
C       -2.00542248      -0.20209746      -1.64403956
O       -3.18891361       0.00994285      -1.76944612
C       -1.36596019      -1.53211191      -2.06371856
H       -0.69900008      -1.34110507      -2.90989049
H       -2.17833489      -2.19052018      -2.39299676
N       -0.60008095      -2.15096308      -1.00320728
H       -0.01321923      -2.93904378      -1.24223743
C       -0.84906162      -1.98333734       0.30118465
O       -1.65933362      -1.18391219       0.74194701
C        0.01395173      -2.86285118       1.20115372
H       -0.41450238      -2.79447350       2.21371559
N        0.02901651      -4.21366859       0.64973693
H       -0.89696671      -4.62682116       0.70041651
H        0.65479529      -4.80242836       1.18969549
C        1.46007770      -2.32032304       1.22331837
H        1.97270886      -2.69414729       0.33538148
H        1.96902776      -2.72064871       2.10324873
C        1.51087759      -0.82730239       1.22898602
C        1.25251229       0.01604133       2.27308320
H        0.98140277      -0.22386538       3.28270800
N        1.39248952       1.31468136       1.87984188
H        1.14755585       2.12098306       2.43036279
C        1.71232520       1.34587561       0.55706578
C        1.93161834       2.42253179      -0.29523174
H        1.84079181       3.43555602       0.06347975
C        2.24756816       2.14483338      -1.60719668
H        2.42175697       2.95604585      -2.29756143
C        2.35658286       0.82736495      -2.06664768
H        2.61670324       0.65438100      -3.10066546
C        2.14443134      -0.24472243      -1.22854163
H        2.24194638      -1.25714256      -1.59333861
C        1.80942389       0.00359813       0.10630268
41
Properties=species:S:1:pos:R:3 energy=-692264.3814000015 pbc="F F F"
O       -0.36534104       2.84460074      -1.42001758
C       -1.31858844       2.36349770      -0.87054472
O       -2.46670328       2.16731426      -1.48772823
H       -3.13327998       1.70864773      -0.90537898
C       -1.29074145       1.94198074       0.61222832
H       -2.09407113       2.48404184       1.12727567
H       -0.32612687       2.21283645       1.04005720
N       -1.49569412       0.51349716       0.78301124
H       -0.71710633      -0.04077872       1.11643884
C       -2.68963077      -0.06215274       0.59309603
O       -3.67255834       0.55613683       0.20015342
C       -2.71372208      -1.56628814       0.84181201
H       -3.72138043      -1.94113298       0.65719525
H       -2.41887088      -1.77217532       1.87588863
N       -1.76657910      -2.22724610      -0.02261354
H       -1.99286399      -2.39722525      -0.99337658
C       -0.48815862      -2.43147062       0.35012699
O       -0.08578996      -2.19127787       1.47222705
C        0.38766550      -3.00179883      -0.76547046
H        0.40566095      -4.09068114      -0.63014320
N       -0.23603970      -2.72613498      -2.05204784
H        0.22351422      -3.25744346      -2.78350609
H       -0.11711620      -1.74048830      -2.27449493
C        1.83175851      -2.46402416      -0.62428521
H        2.44334227      -2.91237273      -1.41244561
H        2.22003933      -2.78333219       0.34224534
C        1.89025380      -0.97299978      -0.70799345
C        1.80746241      -0.19554319      -1.83116617
H        1.73204166      -0.48920800      -2.86264786
N        1.90453546       1.12754136      -1.50297123
H        1.74974591       1.90373654      -2.12417388
C        2.02834331       1.23713355      -0.15175639
C        2.15829931       2.36651342       0.64947509
H        2.15294755       3.35375724       0.21380608
C        2.28180123       2.17192744       2.00817730
H        2.38339637       3.02547270       2.66256774
C        2.28226604       0.88617911       2.56059383
H        2.38452778       0.77861149       3.63038962
C        2.16321094      -0.23585352       1.77269864
H        2.15667302      -1.22100886       2.21036128
C        2.02788031      -0.07004044       0.39297170
41
Properties=species:S:1:pos:R:3 energy=-692252.4994471754 pbc="F F F"
O       -1.37207822       3.00449168      -1.12214983
C       -1.99452040       2.72784070      -0.12646064
O       -3.18328263       3.24917480       0.15992437
H       -3.54848896       3.70146650      -0.61639605
C       -1.41918785       1.95407688       1.06225776
H       -1.93615706       2.29377255       1.96684524
H       -0.34982965       2.17079847       1.14169070
N       -1.60512182       0.52724000       0.90448888
H       -1.08132869      -0.11711019       1.50072902
C       -2.38870516       0.03427200      -0.05466232
O       -2.96542428       0.73450637      -0.86840857
C       -2.55230372      -1.49240505      -0.01057643
H       -3.30912494      -1.77381674      -0.74217343
H       -2.89935783      -1.75544485       0.99561785
N       -1.33220746      -2.21467754      -0.29276420
H       -1.25526737      -2.72351165      -1.15882086
C       -0.29801112      -2.29594491       0.55741602
O       -0.27267714      -1.73908438       1.64377636
C        0.84784527      -3.15873571       0.03924909
H        1.57040061      -3.24854537       0.86583217
N        0.30142896      -4.43523643      -0.40989150
H       -0.10318968      -4.94210293       0.37095154
H        1.04226566      -5.01091451      -0.79679581
C        1.51649124      -2.45165073      -1.16175929
H        0.98951046      -2.75410243      -2.06929894
H        2.55308172      -2.78709445      -1.24126278
C        1.45701878      -0.96526822      -1.02935397
C        0.62655197      -0.11951236      -1.71016206
H       -0.08717678      -0.34483189      -2.48022656
N        0.81317804       1.16684829      -1.30016220
H        0.22322947       1.94832872      -1.55732034
C        1.75074549       1.17677755      -0.31174841
C        2.26030297       2.23366304       0.43452508
H        1.91581476       3.24440901       0.26865376
C        3.21822890       1.94423326       1.38140887
H        3.63371873       2.74077573       1.98125348
C        3.66888785       0.63576608       1.58184293
H        4.42379827       0.45388629       2.33294937
C        3.17260862      -0.41482127       0.84481146
H        3.53086145      -1.42076427       1.00635241
C        2.19543476      -0.15470833      -0.11544431
41
Properties=species:S:1:pos:R:3 energy=-692261.1501566597 pbc="F F F"
O       -2.41804107       0.74054410      -1.83212323
C       -3.30851526       1.26751296      -1.22470059
O       -4.27795951       1.97274012      -1.81370970