64
Properties=species:S:1:pos:R:3 energy=-959520.5380781046 pbc="F F F"
C       -5.05037243      -1.23485818      -1.00497291
N       -2.90252740      -2.11254819      -0.37195706
O        2.57899370      -0.39351299      -2.70197406
N        3.10317144       1.02765347       1.10635332
O        2.66277050      -1.27766987      -0.64752664
N        3.16004667       1.62732601      -0.15451050
O        1.88874706      -0.16578436       2.58068292
N       -0.22226258      -0.28403110       0.93823619
O       -4.68337096       1.74729394       0.26692198
O       -0.73127794      -0.63368608      -1.23709872
C        5.24473775       0.34646889      -0.62101207
O       -3.99228385      -0.80745721       1.10815654
C        5.13240963      -0.27543919       0.77152040
C        4.37971531       0.67578667       1.70209261
C        3.85913312       0.78298724      -1.12989249
C        2.96753015      -0.42000030      -1.43667703
C        1.95046831       0.48094559       1.55405407
C        0.69266752       0.81309747       0.75425689
C        0.09513888       2.12470018       1.30794633
C       -1.11612100       2.53025097       0.51732073
C       -1.00870412       3.46674742      -0.50177569
C       -2.12660896       3.83025890      -1.23239197
C       -3.35473596       3.25722174      -0.96963022
C       -3.47027185       2.30069638       0.03635570
C       -2.34786629       1.94972883       0.77887034
C       -0.81148401      -0.94684145      -0.06191696
C       -1.66525950      -2.14271527       0.38333535
C       -0.91914278      -3.46391264       0.14001953
C        0.43462391      -3.46222273       0.84579750
C       -1.77117251      -4.63893707       0.61506243
C        1.67321829      -1.41663950      -3.11535044
C       -3.94411025      -1.34893805       0.01463659
H       -4.81038319      -0.41399280      -1.67941021
H       -2.81625760      -2.34660842      -1.34977509
H        3.65631937       2.51511822      -0.06904784
H       -0.22695703      -0.66028279       1.87721248
H       -4.58127801       0.96598909       0.84436722
H        5.68751345      -0.36234078      -1.32176357
H        5.88907076       1.23020779      -0.57968534
H        4.57716662      -1.21152776       0.70898982
H        6.12448935      -0.48254747       1.17382541
H        4.95297914       1.59756646       1.86154704
H        4.17097922       0.20610624       2.66290217
H        3.95014465       1.36376862      -2.05208509
H        0.89703472       0.92185996      -0.31222080
H       -0.16677691       1.96426549       2.35590117
H        0.85985648       2.90035359       1.25054434
H       -0.04993547       3.91451144      -0.71914275
H       -2.03936975       4.56614410      -2.01848690
H       -4.23412568       3.53119399      -1.53123324
H       -2.45030991       1.21229609       1.56257352
H       -1.93388946      -2.04278286       1.43892011
H       -0.75175459      -3.55459173      -0.93983937
H        0.91872322      -4.42713689       0.71364405
H        0.31243646      -3.28825122       1.91265871
H        1.09231944      -2.69691440       0.44278820
H       -1.91192575      -4.58887848       1.69239060
H       -1.28164981      -5.57984587       0.37599284
H       -2.74966616      -4.62751256       0.14113118
H        0.69628828      -1.23774453      -2.66056209
H        1.61359553      -1.34798107      -4.19782881
H       -5.98602632      -0.99910760      -0.50590925
H       -5.15552079      -2.14969601      -1.58156203
H        2.04614122      -2.39474730      -2.80618955
64
Properties=species:S:1:pos:R:3 energy=-959520.6875950642 pbc="F F F"
C       -5.01503718      -2.06990520      -0.08383218
N       -2.69187921      -2.51569968      -0.48463786
O        1.19574896       0.66908208       2.93047428
N        2.32804514       1.19351187      -0.93645872
O        1.10777781      -1.53855170       2.51577389
N        1.60544002       0.82233996       0.20268082
O        2.57159474       1.35321979      -3.15286362
N        0.08166333      -0.55126418      -1.49835577
O       -2.20160676       1.49927525       2.12144787
O       -1.46323052      -1.59204978      -2.79827027
C        3.72019239       0.50388932       1.45456031
O       -3.21450079      -0.85525968       0.94862700
C        4.47717941       0.89149756       0.18334165
C        3.61458310       1.81651607      -0.67525717
C        2.36943250      -0.09896646       1.04810743
C        1.48897621      -0.42959248       2.24943067
C        1.88614738       1.01426090      -2.20835328
C        0.48272619       0.46198773      -2.44409530
C       -0.51716398       1.65247351      -2.46442382
C       -0.64226410       2.26620540      -1.10264104
C        0.09671815       3.38878889      -0.74996420
C        0.04364555       3.87230415       0.54771770
C       -0.72250969       3.23869909       1.50849625
C       -1.47753667       2.11834733       1.16271498
C       -1.44348283       1.65606037      -0.14775748
C       -0.91039084      -1.42899917      -1.72875540
C       -1.26981432      -2.25707130      -0.48284170
C       -0.43980313      -3.55568481      -0.44643320
C       -0.54030634      -4.20020934       0.93356765
C       -0.86113209      -4.52950181      -1.54579331
C        0.30536639       0.55308880       4.04109783
C       -3.56507404      -1.73846306       0.18064740
H       -5.26619994      -1.80317068      -1.10875548
H       -3.02617647      -3.09637118      -1.23835957
H        1.35820279       1.65336143       0.74534240
H        0.35719364      -0.34875363      -0.54450025
H       -2.64618471       0.71283033       1.75158102
H        3.54304342       1.38810421       2.07164869
H        4.29170612      -0.21780078       2.03880774
H        5.41034781       1.39471828       0.43665451
H        4.71673941      -0.00772304      -0.38738950
H        4.08260427       2.01768469      -1.63876144
H        3.44193353       2.76503513      -0.15085020
H        2.53024218      -1.02292296       0.47959094
H        0.48087701       0.01290049      -3.44377827
H       -0.16199178       2.38233686      -3.19239445
H       -1.47906113       1.25917737      -2.79729745
H        0.71499459       3.87778971      -1.48833313
H        0.61370038       4.74995770       0.81741626
H       -0.75682258       3.60098988       2.52392133
H       -2.05028009       0.80311808      -0.41317150
H       -1.05774784      -1.67654329       0.42075320
H        0.60133368      -3.26261784      -0.62060397
H       -0.12708462      -3.53933584       1.69129268
H        0.01276996      -5.13597774       0.95184675
H       -1.57934491      -4.40753956       1.17982017
H       -0.11546511      -5.31359263      -1.65202142
H       -0.95633662      -4.01549651      -2.49942161
H       -1.80950344      -5.00356269      -1.30090806
H        0.68283522       1.21026740       4.82172287
H       -0.69013827       0.87093767       3.72604423
H       -5.64660248      -1.50403726       0.59491316
H       -5.19326452      -3.13350101       0.05401341
H        0.27391915      -0.48038702       4.38719601
64
Properties=species:S:1:pos:R:3 energy=-959522.824561976 pbc="F F F"
C       -4.96293689      -1.89800892      -0.27001652
N       -2.65646162      -2.40651346      -0.69509187
O        0.36561025      -0.71457539       2.03010299
N        2.39875777       1.30640803      -0.77981071
O        1.98380804      -0.35839961       3.53935343
N        1.66150264       0.88792204       0.33540474
O        2.66966321       1.55071022      -2.98546281
N        0.17577635      -0.45785350      -1.44954077
O       -2.35541644       1.48334154       2.14421857
O       -1.26795812      -1.43848567      -2.90072340
C        3.77781581       0.63269974       1.61815819
O       -3.13194701      -1.02905929       1.02432977
C        4.54052506       1.06331373       0.36650547
C        3.65595198       1.97389316      -0.48321491
C        2.44978481       0.00130656       1.19342482
C        1.59498569      -0.37261181       2.40410161
C        1.97907554       1.16579694      -2.06208942
C        0.59169069       0.59802409      -2.34163916
C       -0.42737755       1.77119138      -2.34537831
C       -0.61549530       2.32901443      -0.96660295
C        0.08982820       3.45004767      -0.54659972
C       -0.03478255       3.89685623       0.75955104
C       -0.84701533       3.23270631       1.65943138
C       -1.57039195       2.11369837       1.24667475
C       -1.45340668       1.68093254      -0.06970490
C       -0.78347561      -1.33446964      -1.79022765
C       -1.22127785      -2.23795612      -0.62613094
C       -0.47414431      -3.58586697      -0.67458308
C       -0.67983638      -4.34455179       0.63442493
C       -0.90614225      -4.43340462      -1.86971652
C       -0.55320645      -1.02712750       3.08054607
C       -3.50691952      -1.72091562       0.08755900
H       -5.58342512      -1.43871090       0.49414099
H       -2.99680287      -2.82051703      -1.55031803
H        1.35553362       1.70529288       0.86817155
H        0.39820582      -0.29454232      -0.47313735
H       -2.73413900       0.67382553       1.75608191
H        3.57307489       1.49844651       2.25255744
H        4.35391372      -0.08136639       2.20545384
H        5.45365873       1.59165493       0.63985831
H        4.81579070       0.18320855      -0.21800952
H        4.12792409       2.21639539      -1.43516327
H        3.43890550       2.90229239       0.06044315
H        2.64181884      -0.91456408       0.61703935
H        0.61919401       0.18548557      -3.35691385
H       -0.06058348       2.53700258      -3.02940614
H       -1.36990775       1.37763439      -2.72976950
H        0.73645184       3.96772029      -1.23980838
H        0.51131057       4.77185341       1.08231208
H       -0.94445119       3.56911092       2.67966099
H       -2.02927584       0.82474292      -0.38959532
H       -1.00149612      -1.73964484       0.32086987
H        0.58994399      -3.34737083      -0.78185657
H       -0.27777900      -3.78133172       1.47290545
H       -0.17884309      -5.30857370       0.59394838
H       -1.73977645      -4.51385119       0.81049274
H       -0.91693959      -3.83682661      -2.77849146
H       -1.89742321      -4.85164918      -1.70794232
H       -0.21346368      -5.25965361      -2.00947709
H       -0.67202372      -0.16606024       3.73850035
H       -1.49861011      -1.26239488       2.59759121
H       -5.20926500      -2.95366157      -0.35346176
H       -5.16277512      -1.41724683      -1.22593843
H       -0.18415290      -1.87324636       3.66233462
64
Properties=species:S:1:pos:R:3 energy=-959519.8277481769 pbc="F F F"
C       -4.97633940      -1.47376444      -1.26938021
N       -2.93784786      -2.30288342      -0.28903226
O        2.35020812      -0.15175952      -2.69031090
N        3.05915586       0.89853365       1.18675685
O        2.56346895      -1.28858147      -0.77257712
N        3.08601123       1.58795581      -0.02812394
O        1.87381202      -0.37647555       2.61456283
N       -0.29133496      -0.36499677       1.08254075
O       -4.59039032       1.78369076      -0.07230467
O       -0.91641361      -0.66468670      -1.06892053
C        5.14040183       0.31909687      -0.64638159
O       -4.12264494      -0.77344707       0.86302873
C        5.05645739      -0.40081430       0.70013512
C        4.34802678       0.49268598       1.71831504
C        3.75054976       0.81418745      -1.08329128
C        2.82573057      -0.34154784      -1.46945737
C        1.91364911       0.33618077       1.63022289
C        0.64179157       0.71146441       0.87384723
C        0.07845356       2.03912832       1.42477114
C       -1.05954160       2.51216064       0.56393450
C       -0.84759325       3.49509320      -0.39331104
C       -1.88824925       3.91082571      -1.20569968
C       -3.13950788       3.33982826      -1.09122014
C       -3.35919119       2.33618880      -0.14996454
C       -2.31738705       1.94050662       0.68290939
C       -0.94035888      -1.00033128       0.10148126
C       -1.78562077      -2.18849776       0.58338020
C       -0.98296360      -3.50290105       0.62221649
C       -0.10974774      -3.67599903      -0.61919028
C       -0.11895843      -3.57842162       1.87942150
C        1.39992957      -1.10352129      -3.16999100
C       -3.98508774      -1.46587123      -0.13352473
H       -5.93302827      -1.09237889      -0.92406482
H       -2.76162766      -2.68127911      -1.20701901
H        3.59055593       2.46460749       0.10783176
H       -0.27647701      -0.74619484       2.01940894
H       -4.55623130       0.97657014       0.47890698
H        5.55011219      -0.34439323      -1.40886438
H        5.80236764       1.18641453      -0.56006408
H        4.48241698      -1.32044167       0.58506996
H        6.05556705      -0.65302821       1.05664831
H        4.93888948       1.39429177       1.92207184
H        4.16241695      -0.03906727       2.65116754
H        3.82927711       1.46784056      -1.95667571
H        0.82334840       0.81368280      -0.19764031
H       -0.25337309       1.87214981       2.45158042
H        0.87865512       2.78009124       1.42883379
H        0.13269986       3.93659202      -0.49991210
H       -1.72002485       4.68362588      -1.94174882
H       -3.95789598       3.64881225      -1.72243928
H       -2.50325885       1.17096757       1.41883152
H       -2.18099915      -1.96578827       1.58005548
H       -1.72002867      -4.31490503       0.65703466
H        0.70945354      -2.96087082      -0.60661691
H       -0.68055721      -3.52820932      -1.53347476
H        0.31193377      -4.67848929      -0.63806045
H        0.65902169      -2.81884045       1.86459439
H        0.36586081      -4.55043168       1.93308294
H       -0.72110630      -3.45055854       2.77648271
H        0.46610382      -0.99728409      -2.61313371
H        1.24938548      -0.87350071      -4.22091990
H       -5.09870657      -2.47198192      -1.68088870
H       -4.60491828      -0.81033393      -2.04927439
H        1.78691263      -2.11637513      -3.04526250
64
Properties=species:S:1:pos:R:3 energy=-959521.8986278423 pbc="F F F"
C       -4.77870387      -1.90123665       0.16344862
N       -2.54802500      -2.43730528      -0.54210758
O        0.72846146       0.26715239       2.80905361
N        2.28961042       1.32375890      -0.75583435
O        1.27646375      -1.86882180       2.40399658
N        1.53204258       0.81249909       0.30257230
O        2.66895671       1.62597426      -2.93886013
N        0.19465491      -0.50747159      -1.55086900
O       -2.30374727       1.60455077       2.08416517
O       -1.33412098      -1.50142233      -2.90950386
C        3.56140482       0.57234984       1.68730966
O       -2.79010654      -1.00146591       1.17602643
C        4.37277249       1.12976964       0.51500309
C        3.49657401       2.02915055      -0.35923547
C        2.31859483      -0.11928600       1.11331014
C        1.39700833      -0.69231645       2.18457084
C        1.94780951       1.18908785      -2.06418806
C        0.59876997       0.56814827      -2.42476394
C       -0.45952494       1.70493354      -2.45626411
C       -0.63675955       2.32011954      -1.09994334
C        0.05151656       3.47562051      -0.75063514
C       -0.06455186       3.99101117       0.52994929
C       -0.84995330       3.36053142       1.47623891
C       -1.54932854       2.20192809       1.13834368
C       -1.44211803       1.70003655      -0.15479985
C       -0.77750429      -1.38950789      -1.83518375
C       -1.11255847      -2.29409425      -0.63481744
C       -0.39142435      -3.65074597      -0.76205966
C       -0.42928257      -4.38644416       0.57521799
C       -0.98089768      -4.50482161      -1.88289081
C       -0.26287333      -0.15194865       3.74593518
C       -3.28735801      -1.72377893       0.32252257
H       -5.03771410      -2.95717320       0.16601529
H       -2.99298532      -2.89490549      -1.32300831
H        1.18375899       1.57248105       0.89083208
H        0.44720371      -0.34551346      -0.58194017
H       -2.60875056       0.73138849       1.77254295
H        3.24513554       1.38254056       2.34923698
H        4.15607362      -0.13600846       2.26441427
H        5.22449596       1.70221304       0.88261957
H        4.75156123       0.30251939      -0.08825310
H        4.01719769       2.32654895      -1.26936424
H        3.20289930       2.92680992       0.19988413
H        2.63001708      -0.94906777       0.46667160
H        0.68782882       0.17089282      -3.44220645
H       -0.13053853       2.45300602      -3.17813634
H       -1.39457354       1.26395493      -2.80558226
H        0.67762725       3.96750703      -1.48029532
H        0.46712509       4.89350543       0.79576356
H       -0.94266077       3.75178706       2.47717804
H       -1.99537039       0.81028592      -0.41759012
H       -0.79026237      -1.81064577       0.29268129
H        0.65192522      -3.42408739      -1.00771519
H        0.08478140      -3.81175194       1.34205419
H        0.05735252      -5.35426782       0.48488439
H       -1.45822861      -4.54551564       0.89087539
H       -0.31782656      -5.33812805      -2.10156757
H       -1.10260327      -3.91582478      -2.78883702
H       -1.94600608      -4.91426976      -1.59109194
H       -0.97711916      -0.81619896       3.25667577
H        0.20465004      -0.67527748       4.58129236
H       -5.09836025      -1.46647839      -0.78187578
H       -5.29412858      -1.39924331       0.97729583
H       -0.76174915       0.75374617       4.07792063
64
Properties=species:S:1:pos:R:3 energy=-959518.808229576 pbc="F F F"
C       -5.01889404      -1.91284255      -1.93060193
N       -2.95714139      -2.37832871      -0.79161078
O        3.21302631      -1.50127692      -2.24944633
N        2.71891851       1.58053739       0.30430756
O        2.87409539      -1.40303119      -0.03819167
N        3.18359526       1.46571549      -1.00938289
O        1.11137810       1.03568513       1.78610692
N       -0.36863819      -0.19524602      -0.02004067
O       -4.33129918       1.79738604       1.47667276
O       -0.51968274      -1.51155549      -1.84971294
C        5.27273282       0.42956606      -0.12664373
O       -4.21129887      -0.65988071      -0.04319597
C        4.71422901       0.59680500       1.28747689
C        3.73729039       1.77218263       1.32158749
C        4.13411655       0.35471342      -1.15780096
C        3.33624509      -0.94583866      -1.05203676
C        1.49128863       1.11650535       0.63647302
C        0.57258799       0.76765692      -0.53061190
C       -0.14971208       2.03926219      -1.03896162
C       -1.06878097       2.58677418       0.01599388
C       -0.69083499       3.64498979       0.82883995
C       -1.54303291       4.08839811       1.82681217
C       -2.76105094       3.47518227       2.04163420
C       -3.14691322       2.40211061       1.23981303
C       -2.30159346       1.98297584       0.21930808
C       -0.82696719      -1.24767904      -0.69790754
C       -1.82686418      -2.11614574       0.07744009
C       -1.15712158      -3.42684163       0.51881499
C        0.06310726      -3.13309493       1.38870861
C       -2.15530232      -4.30074865       1.27438548
C        2.41076886      -2.67899804      -2.34031604
C       -4.03564629      -1.56939378      -0.83495102
H       -5.27180349      -2.96973088      -1.89696050
H       -2.76917438      -2.98426424      -1.57626264
H        3.65082343       2.33677540      -1.26271328
H       -0.60102862      -0.05009500       0.95480579
H       -4.41225369       1.00087102       0.92339850
H        5.88437696      -0.47115671      -0.18983589
H        5.90484656       1.28730561      -0.37697733
H        4.17923569      -0.30802771       1.57610506
H        5.52629660       0.76533421       1.99530834
H        4.25590131       2.71692413       1.11760026
H        3.22795554       1.83590182       2.28268814
H        4.52845024       0.40864548      -2.17674790
H        1.12661885       0.32281079      -1.35972385
H        0.60466667       2.77304089      -1.32420898
H       -0.72194328       1.75929566      -1.92547428
H        0.26834559       4.12037959       0.68347033
H       -1.24757276       4.91725866       2.45332831
H       -3.42411612       3.80478207       2.82577009
H       -2.61704126       1.16514504      -0.41280142
H       -2.21070527      -1.57160787       0.94481314
H       -0.82958680      -3.95277407      -0.38595842
H        0.51077327      -4.06599838       1.72337518
H       -0.22444592      -2.55981175       2.26730827
H        0.81820056      -2.57060397       0.84559309
H       -3.03657534      -4.49978532       0.66942291
H       -2.47247787      -3.80330807       2.18804402
H       -1.69747814      -5.25025074       1.54063442
H        1.35371570      -2.40141885      -2.32942932
H        2.67084655      -3.15162099      -3.28346524
H       -4.57564896      -1.68935096      -2.89923342
H       -5.91987858      -1.31900137      -1.80716408
H        2.62237498      -3.34258311      -1.50023192
64
Properties=species:S:1:pos:R:3 energy=-959519.7734137875 pbc="F F F"
C       -5.13273182      -1.27566027      -0.88938265
N       -2.99538448      -2.14541052      -0.21273879
O        2.55326691      -0.31500179      -2.65163057
N        3.07796808       0.96246632       1.18448156
O        2.65595925      -1.32706378      -0.65590798
N        3.16706612       1.57898166      -0.06613624
O        1.82004700      -0.21234839       2.63499066
N       -0.26907696      -0.30103051       0.99693754
O       -4.68082047       1.77678270       0.20992522
O       -0.81396097      -0.71193637      -1.15825642
C        5.24293047       0.27016039      -0.50680648
O       -4.06665741      -0.74664967       1.19604611
C        5.08974501      -0.36801501       0.87433297
C        4.33760942       0.58676153       1.80135400
C        3.87893552       0.74234701      -1.03949445
C        2.96465268      -0.42995752      -1.39760088
C        1.91011073       0.43086501       1.60768784
C        0.67245192       0.76616957       0.77794626
C        0.09739401       2.11248741       1.26891963
C       -1.10057013       2.50216798       0.45031561
C       -0.96650697       3.38111288      -0.61574936
C       -2.07136742       3.72729479      -1.37406246
C       -3.31257154       3.19291119      -1.09210455
C       -3.45508737       2.29330362      -0.03811450
C       -2.34562850       1.96051303       0.73177582
C       -0.88448280      -0.98595420       0.02732124
C       -1.75909606      -2.13962793       0.54227813
C       -1.03178470      -3.49666046       0.45519305
C       -0.79775878      -3.92865288      -0.99187785
C        0.29888299      -3.42905058       1.20328384
C        1.61446719      -1.28539570      -3.11417453
C       -4.02634697      -1.34829203       0.13381065
H       -6.06526985      -1.00527522      -0.40212959
H       -2.90914412      -2.41848538      -1.17962728
H        3.66952660       2.46067596       0.04315687
H       -0.27377413      -0.64491437       1.94853609
H       -4.60074591       1.02556235       0.82922371
H        5.68520130      -0.43850920      -1.20795735
H        5.90481297       1.13925841      -0.43997089
H        4.51684083      -1.29140059       0.78701942
H        6.06900420      -0.60090711       1.29350342
H        4.92245130       1.49774027       1.97918742
H        4.10408136       0.11236090       2.75409158
H        4.00389736       1.34182717      -1.94574935
H        0.89371826       0.82876432      -0.28877776
H       -0.17562723       2.00390783       2.32067560
H        0.87686130       2.87036568       1.18226154
H        0.00289573       3.79727890      -0.84833214
H       -1.96346298       4.41861273      -2.19717420
H       -4.18193498       3.45355422      -1.67524189
H       -2.46878727       1.26763550       1.55238347
H       -2.03472730      -1.94064631       1.58292524
H       -1.67497688      -4.23856233       0.94331966
H       -1.72699136      -4.21817004      -1.47829115
H       -0.13051116      -4.78687822      -1.01412678
H       -0.33852666      -3.12225513      -1.55675013
H        0.99716704      -2.76936677       0.69332849
H        0.74446426      -4.41993667       1.25297896
H        0.16232829      -3.07070772       2.22096491
H        1.54926820      -1.15479076      -4.19069825
H        1.96024353      -2.29020682      -2.86439968
H       -5.24758843      -2.21788337      -1.41788365
H       -4.88543346      -0.49269472      -1.60503766
H        0.64549163      -1.10215870      -2.64394619
64
Properties=species:S:1:pos:R:3 energy=-959519.8932647891 pbc="F F F"
C       -4.87231391      -1.59092599      -1.19826233
N       -2.82470873      -2.31290298      -0.15504258
O        2.31475988      -0.13929759      -2.71728624
N        3.15247402       1.02471023       1.10642996
O        2.61061254      -1.23916740      -0.78886728
N        3.12909029       1.66870435      -0.13318891
O        2.02861717      -0.17766564       2.64297947
N       -0.16240223      -0.30896954       1.14063287
O       -4.55030348       1.72512955      -0.04062532
O       -0.89196909      -0.62576064      -0.97567401
C        5.17340191       0.39472796      -0.77695963
O       -4.10426294      -0.81808837       0.94151770
C        5.13886498      -0.27774916       0.59593133
C        4.46316614       0.64967217       1.60594306
C        3.76718838       0.86798894      -1.18446838
C        2.83840988      -0.30301533      -1.51156350
C        2.02857369       0.47791617       1.61925705
C        0.73008136       0.79147407       0.88213997
C        0.12993617       2.11320328       1.40944024
C       -1.02652471       2.53347207       0.54548316
C       -0.83975920       3.48690898      -0.44629403
C       -1.89335380       3.85645045      -1.26412027
C       -3.13282366       3.26737747      -1.11997511
C       -3.32791792       2.29225973      -0.14375789
C       -2.27298327       1.94316049       0.69375609
C       -0.86568503      -0.94514487       0.19905997
C       -1.70162232      -2.11694470       0.73654648
C       -0.85020744      -3.38729724       0.91090967
C       -1.73491945      -4.55445274       1.34472854
C       -0.05979978      -3.72932139      -0.35028753
C        1.35555537      -1.10700951      -3.14345708
C       -3.91146174      -1.52046768      -0.03884613
H       -5.85103136      -1.23896497      -0.88506160
H       -2.60134908      -2.68103190      -1.06700597
H        3.62507181       2.55631585      -0.04575293
H       -0.09451344      -0.68128122       2.07888549
H       -4.50693388       0.93290689       0.53059995
H        5.56105574      -0.29333175      -1.52908604
H        5.83307220       1.26737838      -0.74321136
H        4.56385088      -1.20184028       0.53295341
H        6.15069273      -0.51514834       0.92574579
H        5.05445385       1.56194785       1.75301767
H        4.31611998       0.15307214       2.56464038
H        3.81482098       1.49688357      -2.07811969
H        0.88510095       0.87151571      -0.19526633
H       -0.18914280       1.95826080       2.44201533
H        0.90722536       2.87810128       1.39193376
H        0.13171328       3.94166200      -0.57533279
H       -1.74446863       4.60650893      -2.02731833
H       -3.96168672       3.53978529      -1.75432607
H       -2.43950821       1.19661851       1.45778504
H       -2.13080937      -1.83051831       1.70305759
H       -0.13038314      -3.17868755       1.70990319
H       -2.44643425      -4.80800195       0.56271310
H       -2.29152569      -4.29968380       2.24341262
H       -1.12514421      -5.42993121       1.55342735
H        0.50135670      -4.64756198      -0.19331725
H        0.64625687      -2.93678887      -0.58424988
H       -0.71733993      -3.87693139      -1.20446465
H        1.17323910      -0.90608560      -4.19535020
H        1.75098346      -2.11472591      -3.00328878
H       -4.94672594      -2.60190954      -1.58973897
H       -4.50608187      -0.93127712      -1.98381013
H        0.43741721      -0.98907817      -2.56319501
64
Properties=species:S:1:pos:R:3 energy=-959515.3781221152 pbc="F F F"
C       -5.04101226      -1.95304269      -1.90136207
N       -2.97393078      -2.39394387      -0.76206026
O        3.21110792      -1.43966371      -2.30037797
N        2.73063105       1.57941380       0.29907414
O        2.85942355      -1.40234451      -0.08578806
N        3.32791273       1.53312347      -0.96751117
O        1.11497046       1.02505116       1.76392213
N       -0.37207623      -0.20060327      -0.00879955
O       -4.32790595       1.79896897       1.47007048
O       -0.56805559      -1.49076602      -1.84876317
C        5.27844894       0.40648713      -0.05870876
O       -4.22052679      -0.65501469      -0.05031434
C        4.67813833       0.58160984       1.33572379
C        3.72826136       1.77854561       1.33237784
C        4.18486989       0.35087449      -1.13385306
C        3.36045962      -0.93353312      -1.07792126
C        1.50915911       1.09631051       0.61536188
C        0.57121265       0.74663480      -0.54321578
C       -0.15060680       2.01914765      -1.05574107
C       -1.06468966       2.56848938       0.00384283
C       -0.67448830       3.62057185       0.81849932
C       -1.52080985       4.06669760       1.82029195
C       -2.74288321       3.46215158       2.03587012
C       -3.13996570       2.39486845       1.23159191
C       -2.30104155       1.97250835       0.20704935
C       -0.85362310      -1.24326384      -0.68747688
C       -1.84102849      -2.11384771       0.09763509
C       -1.15934162      -3.41588988       0.54752077
C        0.06948783      -3.10945123       1.40075117
C       -2.14645962      -4.28379563       1.32431450
C        2.38528677      -2.59747883      -2.42840889