37
Properties=species:S:1:pos:R:3 energy=-609638.3316035679 pbc="F F F"
O       -4.29087908      -0.57415501      -1.24656028
C       -3.50436554      -0.16865304      -0.43608929
O       -3.86683625       0.45170133       0.66675659
H       -3.08831905       0.75432976       1.21648816
C       -1.98946188      -0.42110730      -0.61887252
H       -1.85367757      -0.78272809      -1.64083791
N       -1.16248864       0.77046177      -0.49090950
H       -0.50571448       0.95119458      -1.25546855
C       -0.96079526       1.46317842       0.62918786
O       -1.61083634       1.33697762       1.66235610
C        0.14813668       2.51304124       0.50820924
H        0.17089839       3.09516766       1.42921256
H       -0.10571633       3.16976608      -0.33258853
N        1.45728505       1.93795311       0.28401197
H        2.15963726       1.98901421       1.01048924
C        1.87054488       1.42828343      -0.88374989
O        1.14958404       1.28244740      -1.85951862
C        3.34519826       1.05686050      -0.90581826
H        3.85671948       1.83942649      -1.47504809
H        3.44319705       0.11908122      -1.47173001
N        3.89860700       1.01393387       0.43816914
H        3.60050420       0.16080698       0.90252288
H        4.91153714       1.00567402       0.40297145
C       -1.56608436      -1.51932982       0.38062916
H       -1.86318528      -1.22918566       1.39023658
H       -2.09940854      -2.43484155       0.11535239
C       -0.08144092      -1.75310076       0.34610907
C        0.53014806      -2.27327038      -0.78873263
H       -0.06744577      -2.51528075      -1.65500417
C        1.89394047      -2.49815623      -0.81237320
H        2.35581275      -2.90691034      -1.69890779
C        2.66516801      -2.21509323       0.30313297
H        3.72764094      -2.41500670       0.29136803
C        2.06595349      -1.68774494       1.43496322
H        2.65490800      -1.47751959       2.31745612
C        0.70222519      -1.44840957       1.45072295
H        0.24097650      -1.03449565       2.33584031
37
Properties=species:S:1:pos:R:3 energy=-609636.2908268889 pbc="F F F"
O       -4.27900365      -0.97245066       0.59426022
C       -3.46808317      -0.12151116       0.34624056
O       -3.71154147       1.18104499       0.48974654
H       -4.62028185       1.32458305       0.79935668
C       -2.06049639      -0.40179037      -0.16281203
H       -2.16321034      -0.72581188      -1.20760876
N       -1.24299953       0.78135299      -0.17872284
H       -0.89130736       1.14009812       0.70625033
C       -0.75702304       1.29517206      -1.32030094
O       -1.02507700       0.88232640      -2.42919649
C        0.20049158       2.47008073      -1.07155546
H       -0.26963292       3.16655233      -0.37048945
H        0.40110786       2.97264235      -2.01721458
N        1.45125875       2.01233296      -0.50681602
H        2.25169438       1.86865856      -1.10785101
C        1.60546403       1.64781132       0.77251230
O        0.71308929       1.67325550       1.60547149
C        3.02836452       1.22442012       1.11285402
H        2.96850959       0.45154693       1.89263029
H        3.52894097       2.09623766       1.54629867
N        3.74984502       0.82103518      -0.08432862
H        3.40473335      -0.08070598      -0.40491462
H        4.73715070       0.71391964       0.11958616
C       -1.42404473      -1.51400575       0.68778526
H       -1.47402053      -1.22230170       1.73928005
H       -2.02398158      -2.41907709       0.56405915
C        0.00935709      -1.78538052       0.32061477
C        0.41205722      -1.91969995      -1.00316845
H       -0.30351855      -1.81325352      -1.80353983
C        1.73317437      -2.18851639      -1.31327496
H        2.03091090      -2.28567548      -2.34693357
C        2.67126746      -2.34028630      -0.30469451
H        3.69878013      -2.57273140      -0.54816816
C        2.27909624      -2.21020565       1.01755601
H        3.00216428      -2.33310256       1.81157138
C        0.96027845      -1.92491296       1.32417163
H        0.66433862      -1.81559537       2.35740760
37
Properties=species:S:1:pos:R:3 energy=-609635.5242828935 pbc="F F F"
O        0.45950635       0.67982397       1.32458154
C       -0.33887687      -0.16724552       1.01551393
O       -0.85787301      -1.03034077       1.87950677
H       -0.51712989      -0.87913829       2.77601791
C       -0.86216759      -0.38593061      -0.40071341
H       -1.90039208      -0.72526061      -0.31855035
N       -0.81884506       0.86285802      -1.12598319
H        0.03455839       1.06790021      -1.64296691
C       -1.54247271       1.91713925      -0.68661950
O       -2.45431408       1.83256613       0.10677183
C       -1.04738550       3.24567816      -1.27297426
H       -1.77901822       4.03109691      -1.08588990
H       -0.86790848       3.13972757      -2.34578085
N        0.20183194       3.59103713      -0.62661927
H        0.17028295       4.04914773       0.27536343
C        1.36514014       2.98904043      -0.92486987
O        1.51854830       2.23694615      -1.87502883
C        2.48622964       3.35085732       0.03628525
H        2.93722709       4.29255752      -0.29527534
H        3.25206081       2.56441849      -0.03461698
N        1.93210226       3.54313189       1.36910880
H        1.52042925       2.66845780       1.68561325
H        2.66576123       3.79297426       2.02320025
C       -0.00055547      -1.43636643      -1.11986156
H       -0.39781041      -1.55750602      -2.12951054
H        1.01988826      -1.05329815      -1.19226683
C       -0.01738593      -2.75041082      -0.39077912
C       -1.11556657      -3.59493750      -0.49316465
H       -1.94755740      -3.31251944      -1.12193975
C       -1.14934584      -4.79176366       0.19879675
H       -2.00854851      -5.44011336       0.11031468
C       -0.08403549      -5.15923607       1.00325140
H       -0.10948690      -6.09383618       1.54365468
C        1.01471078      -4.32469478       1.11060937
H        1.84985285      -4.60672976       1.73513577
C        1.04615850      -3.12689750       0.41815675
H        1.90604354      -2.47725884       0.50525900
37
Properties=species:S:1:pos:R:3 energy=-609637.8186567819 pbc="F F F"
O       -4.24578086      -0.56464983      -1.32119403
C       -3.48592927      -0.16459785      -0.48316064
O       -3.88307300       0.45777021       0.60672801
H       -3.12295207       0.75011108       1.18609638
C       -1.96666016      -0.42445075      -0.61148301
H       -1.79293548      -0.79214314      -1.62576373
N       -1.14080975       0.76426600      -0.45345280
H       -0.49421601       0.97884507      -1.21492347
C       -0.96712999       1.44408804       0.68000784
O       -1.65233786       1.31398754       1.68967324
C        0.16685138       2.47014655       0.61250638
H        0.19782135       3.01454260       1.55645821
H       -0.06011321       3.16564500      -0.20382693
N        1.46070695       1.87301635       0.36460717
H        2.11337801       1.74144363       1.12544351
C        1.86977132       1.45721554      -0.84224926
O        1.15818382       1.45996024      -1.83525624
C        3.30464774       0.95802514      -0.87296027
H        3.75343412       1.28824136      -1.82098744
H        3.25033823      -0.13496032      -0.89704237
N        4.03317985       1.36354316       0.31988619
H        4.29502296       2.34250498       0.25671116
H        4.88723334       0.82602899       0.41199804
C       -1.58315460      -1.52357445       0.40515897
H       -1.86329851      -1.20374040       1.41037981
H       -2.15250079      -2.42072754       0.15494228
C       -0.10817562      -1.80605768       0.35766702
C        0.43562984      -2.54546140      -0.68558628
H       -0.21247173      -2.93455308      -1.45730265
C        1.79404445      -2.79932775      -0.73359772
H        2.20370679      -3.38283624      -1.54490124
C        2.62728759      -2.31149639       0.26006343
H        3.68675487      -2.52266715       0.23065196
C        2.09642354      -1.56259950       1.29663488
H        2.74270752      -1.17681700       2.07118896
C        0.73649014      -1.31004192       1.34235348
H        0.32385514      -0.73455785       2.15871212
37
Properties=species:S:1:pos:R:3 energy=-609638.5675826422 pbc="F F F"
O       -4.03655844      -0.88419619       0.90131360
C       -3.42662918      -0.20240945       0.12816979
O       -3.97342389       0.79910061      -0.53861088
H       -3.31805109       1.28183677      -1.10869783
C       -1.93029602      -0.44141185      -0.19663167
H       -1.86801198      -0.56549567      -1.28846424
N       -1.12671172       0.71809623       0.15898918
H       -0.49751841       0.64242923       0.95679133
C       -1.06921323       1.80621381      -0.61067214
O       -1.82053149       1.99794630      -1.56081406
C        0.01215419       2.80497021      -0.20359172
H       -0.18863126       3.12140068       0.82599232
H       -0.03686309       3.66698879      -0.86891804
N        1.33874407       2.23290859      -0.25241164
H        1.91028994       2.35073163      -1.07753162
C        1.83579090       1.44347651       0.71263991
O        1.20332929       1.10629047       1.69942409
C        3.27641684       1.02639397       0.46194284
H        3.47292031       0.12008507       1.05077180
H        3.92086994       1.82547323       0.84244784
N        3.51048232       0.88452831      -0.96853521
H        3.02828347       0.05763579      -1.31147140
H        4.49946646       0.75461870      -1.15124051
C       -1.40153987      -1.68006965       0.52274823
H       -1.56333920      -1.55469792       1.59441735
H       -1.99784663      -2.53679073       0.20012979
C        0.05530907      -1.93025515       0.24196692
C        0.51112392      -2.09748969      -1.06104610
H       -0.18534168      -2.05333912      -1.88591725
C        1.84970551      -2.33595075      -1.31629768
H        2.18755743      -2.46530514      -2.33493926
C        2.75214582      -2.42591124      -0.26857212
H        3.79551267      -2.62692847      -0.46684880
C        2.30687393      -2.26629261       1.03263802
H        3.00096455      -2.34467329       1.85679572
C        0.96983002      -2.01096934       1.28389532
H        0.63433277      -1.87842625       2.30123395
37
Properties=species:S:1:pos:R:3 energy=-609633.8401005615 pbc="F F F"
O       -4.27130859      -0.68507469       0.73136700
C       -3.39989281       0.03527640       0.32533528
O       -3.54419728       1.35604986       0.20876388
H       -4.43353357       1.62677492       0.48788072
C       -2.02454195      -0.44434162      -0.10510777
H       -2.13715079      -0.97976370      -1.05874411
N       -1.12438926       0.64865001      -0.35924830
H       -0.94762884       1.32557328       0.37850187
C       -0.39400631       0.71058150      -1.48550147
O       -0.48208004      -0.07284836      -2.40656555
C        0.56281503       1.91286208      -1.50696885
H       -0.01597512       2.81465400      -1.28221942
H        0.99917119       1.99084157      -2.50279904
N        1.62718091       1.80213523      -0.53472892
H        2.52124856       1.42320193      -0.81366254
C        1.47435986       2.09123993       0.76419773
O        0.41142743       2.41847933       1.26812994
C        2.75811968       1.98545032       1.58083477
H        2.70039898       1.06170999       2.16432352
H        2.76180106       2.82187762       2.29624765
N        3.93210883       1.91544495       0.72474831
H        4.74904693       1.65619014       1.26611806
H        4.11790239       2.82300386       0.30929696
C       -1.45573710      -1.42384707       0.94584032
H       -1.33827146      -0.89492457       1.89383101
H       -2.17420034      -2.23275316       1.08020267
C       -0.13051545      -1.93627069       0.46294381
C       -0.06161937      -2.97520189      -0.45555967
H       -0.96999832      -3.46372061      -0.77651422
C        1.15850074      -3.38066606      -0.96402613
H        1.20089070      -4.18857993      -1.67926497
C        2.32343563      -2.74542474      -0.56792768
H        3.27484613      -3.05519325      -0.97464534
C        2.26470211      -1.71121128       0.34959657
H        3.17038095      -1.20900146       0.65868681
C        1.04317952      -1.31358896       0.86363876
H        0.99185671      -0.50789716       1.58202888
37
Properties=species:S:1:pos:R:3 energy=-609636.4030656283 pbc="F F F"
O       -4.15205112      -0.59373494      -1.46650982
C       -3.45240598      -0.19080400      -0.57917876
O       -3.92775916       0.39413487       0.49985204
H       -3.21161964       0.70244648       1.12381440
C       -1.92137638      -0.40551454      -0.63109953
H       -1.68720531      -0.74624710      -1.64266924
N       -1.13730930       0.80182323      -0.40985214
H       -0.42897369       1.01894954      -1.11275962
C       -1.05463360       1.48057917       0.73462125
O       -1.78837211       1.31927083       1.70408321
C        0.04016208       2.55148707       0.73216927
H       -0.05478609       3.14653656       1.64030350
H       -0.11187233       3.19150304      -0.14384641
N        1.37874963       1.99344281       0.66860929
H        1.91159546       1.95844569       1.52172746
C        1.93099148       1.53813682      -0.47323394
O        1.30702033       1.45777809      -1.51933401
C        3.40540217       1.15437330      -0.37837378
H        3.57590260       0.56920849       0.52836958
H        3.98775359       2.08057632      -0.30658972
N        3.88268563       0.40564333      -1.51829504
H        3.41240519      -0.49378949      -1.55860676
H        3.64253906       0.90223408      -2.37139820
C       -1.55668482      -1.51362511       0.38142168
H       -1.90452799      -1.22880507       1.37605540
H       -2.07711293      -2.42486696       0.08027194
C       -0.07171065      -1.74237057       0.41195552
C        0.56831951      -2.37099124      -0.64954925
H       -0.01179140      -2.71387575      -1.49392428
C        1.93613969      -2.57332926      -0.62558731
H        2.42076273      -3.07091786      -1.45304395
C        2.68361166      -2.15049126       0.46192734
H        3.75048358      -2.31687664       0.48436413
C        2.05460491      -1.51565787       1.51919508
H        2.62982071      -1.19078801       2.37497901
C        0.68609992      -1.30780575       1.49129389
H        0.19874253      -0.81638838       2.32167341
37
Properties=species:S:1:pos:R:3 energy=-609634.1155864936 pbc="F F F"
O       -4.01983629      -0.67808359       0.76258202
C       -3.37095408      -0.08075348      -0.04855631
O       -3.82730433       0.97735624      -0.72332272
H       -4.68719087       1.24983228      -0.36689631
C       -1.97798498      -0.49244717      -0.53084441
H       -2.09005462      -0.87564834      -1.55026505
N       -1.12663451       0.67490668      -0.59398305
H       -0.38825171       0.71931768      -1.29340478
C       -1.13932249       1.58028141       0.39486503
O       -1.92944539       1.56680871       1.31632333
C       -0.06005253       2.65979555       0.22587684
H       -0.19558199       3.41808831       0.99651676
H       -0.18167188       3.11086057      -0.76436772
N        1.27644873       2.11572542       0.32625892
H        1.78643513       2.19183064       1.19609054
C        1.88630108       1.43816350      -0.65525419
O        1.36836552       1.17802196      -1.73041715
C        3.31521951       1.03795917      -0.31776319
H        3.97197819       1.82471717      -0.70284707
H        3.54074714       0.11216792      -0.86629893
N        3.49415458       0.94645830       1.12333459
H        3.00916309       0.12349993       1.47192039
H        4.47677348       0.83914003       1.34941641
C       -1.40983360      -1.56846615       0.40912615
H       -1.56626593      -1.23114532       1.43503878
H       -1.99139390      -2.48348253       0.27296574
C        0.04940283      -1.84604793       0.18091724
C        0.92573953      -1.87103084       1.25853725
H        0.55133113      -1.66773624       2.25185167
C        2.26612050      -2.16842549       1.07674238
H        2.92737652      -2.21770047       1.93161650
C        2.75439922      -2.42364311      -0.19382943
H        3.79953230      -2.65817988      -0.33762511
C        1.89232781      -2.38543103      -1.27683417
H        2.26549302      -2.57965111      -2.27126906
C        0.55093599      -2.10652575      -1.08942851
H       -0.11052196      -2.09923786      -1.94260063
37
Properties=species:S:1:pos:R:3 energy=-609637.661250303 pbc="F F F"
O       -4.07067979      -0.86085126       0.89555461
C       -3.44254550      -0.19319850       0.12420924
O       -3.96937259       0.81193623      -0.55203954
H       -3.29986428       1.28815991      -1.11271052
C       -1.94755053      -0.46441332      -0.18585034
H       -1.87554101      -0.60417743      -1.27544205
N       -1.12082493       0.67966261       0.17009915
H       -0.46416198       0.57514256       0.94336729
C       -1.05775454       1.77949385      -0.58072096
O       -1.80702829       1.99675212      -1.52757569
C        0.01894310       2.77586433      -0.15065398
H       -0.16833829       3.04336919       0.89552022
H       -0.05951427       3.66446281      -0.77699025
N        1.35407456       2.23170177      -0.25401043
H        1.93625189       2.46002151      -1.04817425
C        1.88123461       1.39888523       0.65546400
O        1.26489989       0.98023145       1.62191596
C        3.31794372       0.99819091       0.36054324
H        3.27236937       0.00698924      -0.10290115
H        3.84087622       0.88778971       1.32150189
N        3.94329747       1.92422015      -0.57189675
H        4.80658431       1.53451335      -0.93239597
H        4.17449136       2.79388230      -0.10156957
C       -1.45969543      -1.71028299       0.55158224
H       -1.57807283      -1.54773231       1.62379107
H       -2.11096417      -2.54081898       0.27086402
C       -0.02870414      -2.03833130       0.22564943
C        0.33815690      -2.38224705      -1.07067438
H       -0.41334678      -2.42869558      -1.84603347
C        1.65340880      -2.67967649      -1.37698105
H        1.92372449      -2.94544328      -2.38855061
C        2.62111769      -2.64599570      -0.38648747
H        3.64743483      -2.88726762      -0.62377036
C        2.26428614      -2.31198257       0.90877278
H        3.01134471      -2.28847355       1.68833827
C        0.94883571      -2.00489484       1.21096162
H        0.68232382      -1.73907519       2.22246556
37
Properties=species:S:1:pos:R:3 energy=-609633.2849971275 pbc="F F F"
O       -4.14353951      -0.69085656       0.80144537
C       -3.31864202       0.02801812       0.30567457
O       -3.54083480       1.31532100       0.04032841
H       -4.44212975       1.56574463       0.29933771
C       -1.92075200      -0.41825336      -0.09062888
H       -2.00892622      -1.01893945      -1.00745760
N       -1.07297752       0.69812931      -0.40818728
H       -0.95493390       1.43485009       0.28482857
C       -0.31672594       0.72988853      -1.51758277
O       -0.33011385      -0.11450908      -2.38730299
C        0.56431380       1.98908570      -1.59055792
H       -0.08331566       2.86350293      -1.46623268
H        1.04354676       2.02088248      -2.56859141
N        1.58598551       2.02042871      -0.56683103
H        2.53703296       1.76953850      -0.80063665
C        1.35835000       2.34903236       0.71067763
O        0.25390345       2.59440855       1.17108623
C        2.62344284       2.42734502       1.55919397
H        2.36096194       2.13794835       2.58769760
H        2.91902852       3.48120500       1.58209772
N        3.70534216       1.65545020       0.96758933
H        3.54537715       0.66352453       1.11242116
H        4.58925822       1.88905031       1.40497910
C       -1.31083553      -1.29910935       1.02154262
H       -1.09588706      -0.66876121       1.88692554
H       -2.05215872      -2.04715256       1.30462043
C       -0.05773582      -1.94623390       0.50976306
C       -0.12769315      -3.12218249      -0.22591398
H       -1.08709144      -3.59391804      -0.38155529
C        1.01513728      -3.68745633      -0.75977553
H        0.94790100      -4.60134023      -1.33102132
C        2.24370561      -3.07889225      -0.56927161
H        3.13726245      -3.51461038      -0.99100138
C        2.32284392      -1.90716414       0.16200754
H        3.28455837      -1.43416427       0.30650911
C        1.17844200      -1.34388922       0.69913197
H        1.23699563      -0.42753573       1.27082865
37
Properties=species:S:1:pos:R:3 energy=-609634.6952488901 pbc="F F F"
O       -4.30090171      -0.90632266       0.67258940
C       -3.47136885      -0.08543896       0.38821225
O       -3.67102233       1.22625378       0.51734226
H       -4.56576178       1.40223937       0.84991134
C       -2.08804147      -0.41621633      -0.15467603
H       -2.22984905      -0.74775166      -1.19248962
N       -1.23394279       0.74001126      -0.20727464
H       -0.86791219       1.11505268       0.66444810
C       -0.76119934       1.22256781      -1.36772353
O       -1.07481644       0.80769731      -2.46388879
C        0.24573732       2.36317317      -1.16169739
H       -0.19575585       3.10418999      -0.48821975
H        0.46655751       2.82101008      -2.12573589
N        1.47647477       1.88167903      -0.57318269
H        2.25724824       1.64128886      -1.16819833
C        1.61772073       1.60718297       0.73051080
O        0.72453676       1.72959332       1.55411670
C        3.00714302       1.11285675       1.10616225
H        2.93182168       0.02448631       1.19851056
H        3.25068771       1.51551988       2.10039149
N        3.98057888       1.42242550       0.06982890
H        4.83781062       0.90457951       0.22443612
H        4.21188374       2.41084723       0.08843589
C       -1.46544038      -1.54122138       0.69009419
H       -1.50729332      -1.25287154       1.74304391
H       -2.08123838      -2.43582101       0.56766350
C       -0.03650439      -1.83635648       0.32091359
C        0.38792216      -1.88458657      -1.00170806
H       -0.30836498      -1.70300651      -1.80554989
C        1.70976289      -2.15729887      -1.30735943
H        2.02403349      -2.18162713      -2.34018362
C        2.62507546      -2.40424175      -0.29909709
H        3.65500000      -2.62268856      -0.54028748
C        2.20945339      -2.37054043       1.02140438
H        2.91250129      -2.57200055       1.81762616
C        0.89098128      -2.08002916       1.32651819
H        0.57783584      -2.04436832       2.36007773
37
Properties=species:S:1:pos:R:3 energy=-609634.8471276319 pbc="F F F"
O       -3.58208401       1.19123875       1.05700994
C       -3.36908015       0.08633826       0.64353064
O       -4.25409941      -0.91206562       0.73212622
H       -5.07024404      -0.60610841       1.15962675
C       -2.07798767      -0.37132913      -0.01808932
H       -2.33364691      -0.82981744      -0.97997798
N       -1.22883866       0.75622229      -0.29657123
H       -0.81035093       1.24962632       0.48601485
C       -0.88750040       1.10256962      -1.54806356
O       -1.29005642       0.54615356      -2.54842917
C        0.11116242       2.26700572      -1.58588945
H       -0.22064570       3.04938221      -0.89805781
H        0.16629803       2.65967551      -2.60098118
N        1.43267120       1.83037712      -1.17496223
H        2.06195328       1.51204016      -1.89346706
C        1.77189431       1.66350033       0.11892241
O        1.00303789       1.87571226       1.04031243
C        3.21716331       1.22135066       0.34982228
H        3.88751830       1.98262153      -0.06255344
H        3.38894081       0.28183735      -0.18428604
N        3.54330863       1.02713257       1.74556114
H        2.94494948       0.30197856       2.12977705
H        3.33358332       1.87729287       2.26088695
C       -1.37258735      -1.38613327       0.90219689
H       -1.32613785      -0.97123925       1.91213305
H       -1.97816386      -2.29540519       0.93714674
C        0.02435389      -1.71440842       0.44467040
C        0.31928592      -1.94874413      -0.89299508
H       -0.45570722      -1.88885633      -1.64112918
C        1.61144932      -2.25285998      -1.28457881
H        1.82495370      -2.42462717      -2.32946630
C        2.62419786      -2.34410090      -0.34504679
H        3.63092845      -2.58930282      -0.65062404
C        2.33827665      -2.12362389       0.99166155
H        3.12279905      -2.19835202       1.73046283
C        1.04938803      -1.80114708       1.37902054
H        0.83330428      -1.62169784       2.42297554
37
Properties=species:S:1:pos:R:3 energy=-609635.7411934886 pbc="F F F"
O       -3.43191415      -1.31955873       1.38050220
C       -2.78903635      -0.36259304       1.04084978
O       -2.49040848       0.63887480       1.86658623
H       -2.83920866       0.47080456       2.75617503
C       -2.26040616      -0.14720266      -0.36560231
H       -3.11911766       0.15976399      -0.98250396
N       -1.27553636       0.90652786      -0.39722371
H       -0.84300574       1.19669277       0.47695059
C       -0.84048743       1.43723000      -1.55009567
O       -1.27208452       1.15458964      -2.64807279
C        0.27386444       2.47461289      -1.33437729
H       -0.10838145       3.24751002      -0.65952059
H        0.52955415       2.91880200      -2.29663814
N        1.46382149       1.90457847      -0.74264739
H        2.22846069       1.60946111      -1.33356571
C        1.59749408       1.66745417       0.56960952
O        0.71110585       1.85702308       1.38737131
C        2.96340558       1.12851226       0.96944041
H        2.83107374       0.05887486       1.15898581
H        3.24139728       1.60161317       1.92291464
N        3.93970391       1.29603113      -0.09692621
H        4.76666297       0.74148537       0.09274267
H        4.23113493       2.26692955      -0.15626561
C       -1.72287452      -1.47250152      -0.95741441
H       -2.43792505      -2.25838011      -0.71003100
H       -1.67200602      -1.35639595      -2.03996149
C       -0.36074572      -1.80388761      -0.41893934
C        0.77576141      -1.47818164      -1.14854824
H        0.66822869      -0.99986626      -2.11136503
C        2.03599059      -1.77527422      -0.66108351
H        2.91154342      -1.52219968      -1.24118602
C        2.17353399      -2.39605466       0.56938320
H        3.15613095      -2.63893387       0.94895449
C        1.04668792      -2.71421424       1.30901233
H        1.14980484      -3.19888363       2.26892288
C       -0.21247057      -2.42037016       0.81729270
H       -1.09031497      -2.68110327       1.39006005
37
Properties=species:S:1:pos:R:3 energy=-609636.2778655532 pbc="F F F"
O       -3.04908284       0.16898240       1.74554568
C       -2.66412225       0.28758409       0.61700161
O       -3.17681925       1.16923926      -0.22558336
H       -2.70244493       1.18641962      -1.09979869
C       -1.53418286      -0.58732865       0.02174463
H       -1.93567164      -1.06183869      -0.88673181
N       -0.39740090       0.23291596      -0.36287616
H        0.44246326       0.17483934       0.21356916
C       -0.38230491       1.03210301      -1.42778803
O       -1.35494329       1.23043827      -2.14831055
C        0.96864736       1.71380734      -1.65980405
H        0.93580071       2.24972481      -2.60797768
H        1.74710346       0.94398513      -1.69303826
N        1.28000907       2.64508126      -0.59715671
H        1.10503450       3.63361343      -0.72226328
C        1.71803532       2.27292711       0.61373975
O        1.88841537       1.11056153       0.94718694
C        2.00614612       3.44463976       1.54145971
H        3.07163715       3.67660693       1.44433004
H        1.83279710       3.10817109       2.57373246
N        1.23835174       4.61566859       1.14339981
H        1.57576992       5.44182235       1.62384418
H        0.26181173       4.49612806       1.39553987
C       -1.07095931      -1.65024505       1.02007992
H       -0.64869123      -1.14618751       1.89079131
H       -1.94584164      -2.21260575       1.34849312
C       -0.05775027      -2.56201771       0.38642702
C       -0.47552752      -3.62718456      -0.40219700
H       -1.53277794      -3.81756233      -0.52282474
C        0.44717372      -4.44723359      -1.02601474
H        0.10864599      -5.27420862      -1.63292422
C        1.80254907      -4.20934325      -0.87120910
H        2.52388274      -4.84922662      -1.35770027
C        2.22771941      -3.15086832      -0.08748153
H        3.28341819      -2.96099501       0.03929737
C        1.30387828      -2.33118526       0.53828659
H        1.64962270      -1.51163611       1.15183041
37
Properties=species:S:1:pos:R:3 energy=-609634.041216535 pbc="F F F"
O       -4.20289199      -0.90216209       0.94274763
C       -3.40572063      -0.07740454       0.58746541
O       -3.60100086       1.23386863       0.72835444
H       -4.46767527       1.40674768       1.12988412
C       -2.06850381      -0.40353363      -0.06452635
H       -2.29428379      -0.77555920      -1.07308270
N       -1.24489827       0.76439791      -0.23097574
H       -0.79188617       1.15792215       0.58859331
C       -0.90888892       1.23334759      -1.44372965
O       -1.32598589       0.78859786      -2.49248821
C        0.09856448       2.38885437      -1.36860715
H       -0.23398345       3.10881322      -0.61583878
H        0.16494010       2.87138373      -2.34337864
N        1.41366510       1.90693271      -0.98801542
H        2.04994330       1.65791117      -1.72742449
C        1.74334291       1.62290523       0.28711015
O        0.96623745       1.75328487       1.21823365