116
Properties=species:S:1:pos:R:3 energy=-1513374.3459839798 pbc="F F F"
O       -2.45573493      -4.09262905      -2.19533236
O       -0.66843179       1.16723081      -0.62702724
N        2.98256145      -2.70971813       0.06532201
N        1.04058685      -4.22939111      -1.60615934
N       -1.29643070      -4.41687243      -0.27822494
N       -3.13976677      -2.22016357       2.08508509
N       -1.71244149       0.48525504       1.21163666
C        3.77580484      -3.90991230      -0.08201834
C        3.03495370      -5.17161430      -0.54165801
C        2.26360636      -4.97898484      -1.85160349
C        1.17087906      -2.78559612      -1.75266145
C        2.46459396      -2.17736584      -1.17852839
C       -0.11958592      -4.69898221      -2.34060284
C       -1.41888919      -4.34207507      -1.61754200
C       -2.35370194      -4.03073117       0.62155814
C       -2.30682561      -2.52746311       0.94373111
C       -2.71262113      -1.07985614       2.85422291
C       -2.76561949       0.30937776       2.18183835
C       -1.72690418       1.01024879      -0.02172470
C       -4.57370963      -2.39166756       1.90987947
C       -5.26775769      -1.47346882       0.92813966
C       -6.00116930      -0.38238110       1.38524380
C       -6.63111435       0.47315016       0.49814849
C       -6.53484877       0.25066421      -0.86555308
C       -5.81957434      -0.83912080      -1.33094145
C       -5.19616598      -1.69947017      -0.44239170
C        2.02738946      -2.71721302       1.15152564
H       -0.35514639      -4.51164429       0.07729612
H       -0.79414589       0.18040561       1.53928268
H        4.25586344      -4.10991796       0.88126907
H        4.56626540      -3.68286696      -0.80525851
H        2.32787691      -5.48552937       0.22841329
H        3.76886978      -5.96921087      -0.67144285
H        2.90482239      -4.50055941      -2.60520678
H        1.99479662      -5.96669347      -2.23375485
H        0.30479402      -2.33221245      -1.25999594
H        1.12552394      -2.49108724      -2.81643853
H        3.26605428      -2.26686104      -1.91589506
H        2.27036761      -1.11182687      -1.03057222
H       -0.09247285      -5.79065491      -2.40229007
H       -0.17432730      -4.30092516      -3.36664958
H       -2.26385647      -4.60164297       1.54837883
H       -3.29163245      -4.28975761       0.12614157
H       -1.28172723      -2.26497483       1.21797224
H       -2.57097298      -1.95735959       0.04038087
H       -1.67834719      -1.26123270       3.16206430
H       -3.33486926      -1.03731215       3.75269831
H       -3.73818655       0.46502152       1.71963033
H       -2.64213743       1.05776701       2.97714722
H       -5.02720259      -2.26680229       2.89789003
H       -4.73717839      -3.42704376       1.59866574
H       -6.08566987      -0.20645480       2.44969425
H       -7.20054091       1.31211641       0.87206905
H       -7.02039488       0.92027167      -1.55917847
H       -5.74898774      -1.02729789      -2.39162748
H       -4.66311349      -2.55590566      -0.82682878
H        1.07563493      -3.20766251       0.90492556
H        2.46801478      -3.25029878       2.00009582
C       -3.05483710       1.36054705      -0.69680445
C        1.72003362      -1.29735715       1.62698625
N       -3.33364221       2.76288307      -0.92021022
H       -3.01968084       0.87809151      -1.68113189
H       -3.89984900       0.93904079      -0.15548898
O        0.62839998      -0.99203579       2.08738737
N        2.77012485      -0.47725705       1.55579394
C       -3.85121683       3.49793232       0.20206770
C       -2.44497462       3.44775183      -1.84447472
C        2.71380777       0.93909965       1.82175585
H        3.57881807      -0.81177911       1.04595866
C       -2.86438239       3.78670301       1.34498657
H       -4.26181437       4.43903923      -0.17465877
H       -4.68729836       2.91486645       0.60508545
C       -1.78052191       4.74158825      -1.35391454
H       -1.66207667       2.75128329      -2.14625057
H       -3.02535968       3.71231501      -2.74279600
C        2.27830166       1.73233907       0.57864832
H        1.98465642       1.10689177       2.61838636
H        3.70063678       1.25556770       2.16364461
C       -1.85993663       4.89398186       1.04378467
H       -3.43058509       4.07124641       2.23477453
H       -2.30781871       2.87902815       1.56749592
N       -1.03857475       4.58110038      -0.11134296
H       -2.54000882       5.53352279      -1.25297550
H       -1.09117932       5.05611542      -2.14201178
N        3.06532241       1.38729835      -0.59067098
H        2.33665624       2.80517277       0.82100690
H        1.23862903       1.47967059       0.36643934
H       -1.20562390       5.00142292       1.91313908
H       -2.39562408       5.85233782       0.90820109
C        0.20384957       5.32769532      -0.10975421
C        2.33335930       1.45447685      -1.83961829
C        4.37187914       2.02641089      -0.62348386
C        1.24852743       4.79523503      -1.08744372
H        0.06514393       6.40151914      -0.32253971
H        0.65525847       5.25149717       0.88527086
C        1.98020884       2.85559369      -2.36348207
H        2.93117095       0.94726314      -2.60398783
H        1.39902143       0.90462557      -1.70868797
C        5.37183327       1.25649746       0.20029163
H        4.72314875       2.03302129      -1.65984507
H        4.32816177       3.07148486      -0.27921395
O        2.19523647       5.48141531      -1.43172786
N        1.05372991       3.53430954      -1.49255004
H        1.53892602       2.74572688      -3.36239275
H        2.86597964       3.49117888      -2.44559268
C        5.51601310      -0.11233444      -0.00230000
C        6.16340931       1.87982154       1.15499787
H        0.27486285       3.00155838      -1.12343533
C        6.41795155      -0.84484044       0.74852838
H        4.91792068      -0.59407040      -0.76119666
C        7.07327956       1.14942619       1.90071614
H        6.06724669       2.94447871       1.31580801
C        7.19814052      -0.21510084       1.70415259
H        6.51569968      -1.90839342       0.58503329
H        7.68468835       1.64701010       2.63928873
H        7.90480951      -0.78435381       2.28971214
116
Properties=species:S:1:pos:R:3 energy=-1513373.7691370558 pbc="F F F"
O       -2.80694304      -4.54931956      -1.84464514
O       -0.65303581       0.48420373      -0.40041970
N        2.37730898      -2.40173858       0.15008364
N        0.66413493      -4.25612620      -1.36685886
N       -1.62331412      -4.75680701       0.07201763
N       -3.73204386      -2.42892163       2.09334613
N       -2.06012201       0.11645179       1.28144431
C        3.40636509      -3.37031575      -0.15456478
C        2.92917904      -4.76355987      -0.58061718
C        1.97904500      -4.72944841      -1.77972432
C        0.47958902      -2.82037887      -1.53384174
C        1.62149652      -1.93348105      -0.99243435
C       -0.43361772      -4.96740195      -1.99941957
C       -1.75046394      -4.71293909      -1.27050811
C       -2.70208595      -4.36229227       0.94578203
C       -2.69197372      -2.84212452       1.17678952
C       -3.43157451      -1.22860760       2.83378597
C       -3.28344793       0.09090133       2.04302098
C       -1.79734398       0.56385269       0.04735517
C       -5.10251098      -2.57030559       1.62060995
C       -5.51220518      -1.72008303       0.43851407
C       -6.27316196      -0.57077656       0.63357818
C       -6.63205818       0.23483566      -0.43288494
C       -6.23038255      -0.09724126      -1.71629849
C       -5.48934953      -1.24751850      -1.92391807
C       -5.13930815      -2.05986370      -0.85787591
C        1.56813988      -2.68325004       1.31518071
H       -0.68058292      -4.76046409       0.43461849
H       -1.25993604      -0.29069546       1.77163550
H        4.04151129      -3.46928235       0.73228909
H        4.01934819      -2.94333469      -0.95487777
H        2.41332950      -5.24735867       0.25098905
H        3.80468651      -5.36502199      -0.83255433
H        2.40444155      -4.11298777      -2.58424814
H        1.87995737      -5.74729759      -2.16503927
H       -0.44951365      -2.55327841      -1.02266534
H        0.34434359      -2.56201590      -2.59894529
H        2.34644513      -1.73917824      -1.78615325
H        1.15721554      -0.98100773      -0.72149635
H       -0.23953521      -6.04275237      -1.94468392
H       -0.57174092      -4.69339757      -3.05843969
H       -2.61011752      -4.88489080       1.89948893
H       -3.62527636      -4.67163782       0.45258976
H       -1.73537786      -2.57456847       1.63230423
H       -2.75629418      -2.34045200       0.19848186
H       -2.49534715      -1.40287243       3.37306682
H       -4.22821736      -1.08731256       3.56964634
H       -4.14155789       0.22419339       1.38673792
H       -3.27020593       0.91345567       2.77128950
H       -5.75200598      -2.34190523       2.47096560
H       -5.24909222      -3.62334893       1.36652433
H       -6.59423324      -0.30857340       1.63355943
H       -7.22518303       1.12187509      -0.26226203
H       -6.50362411       0.53362693      -2.54891566
H       -5.18631034      -1.52466838      -2.92244065
H       -4.58808639      -2.96761549      -1.05255793
H        0.67470534      -3.28306282       1.09834787
H        2.17141441      -3.23116163       2.04569923
C       -2.90101602       1.22239494      -0.77746102
C        1.12369933      -1.38450963       1.98427681
N       -2.84368652       2.67730024      -0.79294335
H       -2.77741237       0.88462168      -1.81069505
H       -3.89443979       0.92532528      -0.44316919
O        0.05601054      -1.28731192       2.57648005
N        2.04120040      -0.41976598       1.91483265
C       -3.12474672       3.31839144       0.47101861
C       -1.70293352       3.16522448      -1.56079970
C        1.84099586       0.94944511       2.31783910
H        2.79980371      -0.56492244       1.25716862
C       -1.94469020       3.49169512       1.43998402
H       -3.55320189       4.30480957       0.25809819
H       -3.90926006       2.73060157       0.95251891
C       -1.22617226       4.58522406      -1.24963532
H       -0.84700508       2.48737515      -1.44122760
H       -2.00484484       3.13072394      -2.61610490
C        1.87895498       1.85055375       1.07355940
H        0.87364002       1.02603698       2.81793214
H        2.62746561       1.22735044       3.02716543
C       -1.11788264       4.74487388       1.16474821
H       -2.33368717       3.56482244       2.45769824
H       -1.29047095       2.62206841       1.38690647
N       -0.36992647       4.63639083      -0.07178505
H       -2.08535287       5.26642743      -1.15998241
H       -0.63456616       4.91319305      -2.10814545
N        3.09626666       1.59285224       0.32494502
H        1.77476952       2.90155100       1.37840072
H        1.02458810       1.57631422       0.45285693
H       -0.40095238       4.86716619       1.98103100
H       -1.78564879       5.62660877       1.16318062
C        0.71241336       5.59799066      -0.18414971
C        2.95872165       1.58796309      -1.11645082
C        4.24462113       2.34284134       0.81175564
C        1.97706026       5.00432902      -0.81436985
H        0.43623316       6.49287587      -0.76197813
H        1.00607114       5.94852376       0.80858807
C        2.89092364       2.95807012      -1.81550017
H        3.81440368       1.04630219      -1.53196357
H        2.05192060       1.02796134      -1.35488244
C        5.52513221       1.79626720       0.24150371
H        4.16527597       3.42022909       0.59682657
H        4.27260522       2.22815651       1.90031437
O        3.02240344       5.62537210      -0.85646016
N        1.81621791       3.76444888      -1.29673031
H        2.74637990       2.78838276      -2.88931046
H        3.81572706       3.52274623      -1.68062772
C        5.79665203       0.43524608       0.32737833
C        6.44799576       2.62892987      -0.37481369
H        0.92784671       3.31669332      -1.12134334
C        6.96673437      -0.08209861      -0.19588985
H        5.07844435      -0.21701267       0.80259652
C        7.62397689       2.11278686      -0.89264464
H        6.24639623       3.68817406      -0.44833482
C        7.88512525       0.75659581      -0.80645328
H        7.16613495      -1.14188824      -0.12544825
H        8.33585992       2.77146072      -1.36802939
H        8.80079152       0.35342094      -1.21336234
116
Properties=species:S:1:pos:R:3 energy=-1513373.6663496324 pbc="F F F"
O       -2.69388405      -3.49454183      -2.31035490
O       -0.64207208       1.17928622       0.39115839
N        2.86361380      -2.41388345      -0.30873621
N        0.83947005      -3.53662459      -2.16026291
N       -1.30956850      -4.29788545      -0.70970970
N       -3.09016440      -2.79855363       2.20619528
N       -1.65638367       0.02131612       2.00288796
C        3.70769214      -3.43018574      -0.89608401
C        3.00029866      -4.56369033      -1.64869168
C        2.06236098      -4.06077687      -2.75030314
C        0.86362710      -2.10558984      -1.88788449
C        2.16992929      -1.57562453      -1.26441049
C       -0.37556077      -3.88493861      -2.87319552
C       -1.58931161      -3.84047003      -1.94603158
C       -2.26202072      -4.21811851       0.36987813
C       -2.21341735      -2.84325386       1.05658348
C       -2.68720284      -1.86515463       3.22878635
C       -2.73532688      -0.36233505       2.88044330
C       -1.66446689       0.93264815       1.02208852
C       -4.51846336      -2.88163880       1.93228510
C       -5.13903495      -1.76593253       1.11914508
C       -4.96953866      -1.69445468      -0.25997487
C       -5.52173731      -0.64854288      -0.98206842
C       -6.26649555       0.32911839      -0.34489890
C       -6.46612945       0.25104885       1.02338391
C       -5.90465664      -0.78664052       1.74606533
C        2.04947270      -2.83572478       0.80944703
H       -0.33056392      -4.42906582      -0.49608874
H       -0.76361010      -0.44128944       2.18031259
H        4.31338092      -3.86115058      -0.09232432
H        4.38694720      -2.92036472      -1.58750762
H        2.41545010      -5.16328118      -0.94866340
H        3.76253316      -5.20796216      -2.09092081
H        2.57477314      -3.31852508      -3.37805395
H        1.80613143      -4.90775672      -3.39132306
H        0.02790187      -1.89183475      -1.21433138
H        0.68930123      -1.52446578      -2.81093945
H        2.88532152      -1.34422037      -2.05708027
H        1.91829711      -0.63670438      -0.76404896
H       -0.29936250      -4.91354860      -3.23711545
H       -0.57569341      -3.23014092      -3.73673744
H       -2.05229301      -5.00303263       1.09889654
H       -3.24494779      -4.39152115      -0.07227180
H       -1.19645460      -2.67492184       1.41959694
H       -2.43793278      -2.06743189       0.30857160
H       -1.66161789      -2.11498434       3.51636944
H       -3.33447868      -2.02772549       4.09537319
H       -3.69147860      -0.13204612       2.41358112
H       -2.65843491       0.20398279       3.81953872
H       -5.01976387      -2.93778893       2.90293066
H       -4.69230027      -3.83038154       1.41677823
H       -4.41822283      -2.45602752      -0.79024702
H       -5.37213425      -0.60768775      -2.05097927
H       -6.69586981       1.14288471      -0.91012350
H       -7.06027433       0.99897627       1.52803432
H       -6.06967256      -0.84398064       2.81411279
H        1.09317414      -3.29023379       0.51740423
H        2.60830898      -3.57507956       1.39181357
C       -3.00028277       1.62875675       0.74061409
C        1.75274556      -1.66208461       1.74358910
N       -2.94483488       2.79627565      -0.11479221
H       -3.66709594       0.89638337       0.27385334
H       -3.44665038       1.93812769       1.69021750
O        0.71396693      -1.59265013       2.38655434
N        2.76142112      -0.79398371       1.82697327
C       -2.17266155       3.87664602       0.48018300
C       -2.60590259       2.44894281      -1.48754870
C        2.71711633       0.46236949       2.53022679
H        3.51556844      -0.90630395       1.15915559
C       -2.59222793       5.23916281      -0.07832928
H       -2.39580917       3.86313530       1.55096778
H       -1.08896011       3.73717413       0.36626907
C       -2.60284470       3.64903913      -2.44140078
H       -1.61955604       1.96701330      -1.55274202
H       -3.36099318       1.73080301      -1.82353013
C        2.33405500       1.61587704       1.58961373
H        1.96929884       0.38250793       3.32242217
H        3.69944604       0.63531060       2.97616826
C       -1.79098614       5.65163247      -1.31486821
H       -3.65681982       5.18840751      -0.30745278
H       -2.45549620       6.00398832       0.68768253
N       -1.47939125       4.51014377      -2.14309289
H       -3.55548242       4.18617790      -2.37237277
H       -2.51387676       3.26000514      -3.45949264
N        3.14143776       1.61832630       0.38376673
H        2.41663309       2.55850275       2.15685508
H        1.29242031       1.47999787       1.29205906
H       -0.83780921       6.09067460      -1.00382940
H       -2.34852226       6.42728659      -1.87293349
C       -0.51898956       4.79975843      -3.17954407
C        2.44548910       2.12395406      -0.77949299
C        4.48039828       2.15594594       0.56678644
C        0.91289768       4.74112060      -2.62107479
H       -0.57925987       4.04308888      -3.96622889
H       -0.66715662       5.78409351      -3.64990969
C        2.18632720       3.64720164      -0.79945580
H        3.01099325       1.83639277      -1.67030251
H        1.47436072       1.62407915      -0.81736779
C        5.43161011       1.09493158       1.05862423
H        4.84146267       2.51097536      -0.40259689
H        4.48885807       3.01320265       1.25896135
O        1.84528740       5.34351856      -3.11464661
N        0.99652721       3.93567613      -1.55264835
H        3.00874424       4.19711143      -1.26195170
H        2.05648615       4.00299822       0.22990179
C        6.24181158       1.29831660       2.16680944
C        5.50966459      -0.11807592       0.38191031
H        0.12895866       3.50358491      -1.25363264
C        7.10772043       0.30728683       2.59725524
H        6.19676224       2.23950297       2.69717268
C        6.37035639      -1.11098186       0.81432047
H        4.89444479      -0.26974523      -0.49250198
C        7.17047486      -0.90102081       1.92516683
H        7.73391340       0.47894822       3.46051712
H        6.42123862      -2.04867745       0.28058634
H        7.84465578      -1.67403798       2.26300307
116
Properties=species:S:1:pos:R:3 energy=-1513373.0537856543 pbc="F F F"
O        0.00789265       0.47565489      -1.89084837
O       -1.08862781       0.73204727       2.41481683
N        2.41214906      -3.29211626       0.21444089
N       -0.29853987      -2.19353024       0.49936179
N       -1.73322124      -0.81464989      -1.23273888
N       -4.34763510      -0.82153747      -0.39785855
N       -3.20859644       0.49313890       1.75587748
C        2.09141347      -3.78088923       1.54648545
C        1.37350432      -2.68781888       2.34325858
C       -0.07872057      -2.46209966       1.90894452
C       -0.04174837      -3.32925776      -0.36523550
C        1.41266567      -3.60142388      -0.79350920
C        0.27922811      -0.94093577       0.04396750
C       -0.48274681      -0.35097899      -1.13414643
C       -2.71728946      -0.45455084      -2.21665170
C       -4.00151208       0.02569405      -1.52783109
C       -5.22252640      -0.15803849       0.55474547
C       -4.50479946       0.95606117       1.32277988
C       -2.15181543       1.24264831       2.10096401
C       -4.88686434      -2.11401970      -0.80119962
C       -4.93062691      -3.07258649       0.35968129
C       -6.10459695      -3.73288041       0.69605213
C       -6.13854427      -4.61169350       1.76524498
C       -4.99855738      -4.83266877       2.51764761
C       -3.82372716      -4.17624017       2.19041273
C       -3.78743505      -3.30578961       1.11655654
C        3.72777096      -3.66485186      -0.26767273
H       -2.03995187      -1.43025221      -0.49137779
H       -3.06490991      -0.50796717       1.72970883
H        3.02370178      -4.02490220       2.06169510
H        1.48456276      -4.69810185       1.51835826
H        1.93393957      -1.76021319       2.22654277
H        1.37286833      -2.95357719       3.40226543
H       -0.66717293      -3.35009834       2.16354186
H       -0.48178824      -1.61113629       2.46534528
H       -0.61860007      -3.19496802      -1.28774463
H       -0.44621145      -4.20862771       0.14308069
H        1.47120133      -4.66184990      -1.10283105
H        1.65153292      -2.99649022      -1.67288094
H        1.33759699      -1.02076300      -0.22886628
H        0.19361640      -0.22156992       0.86526009
H       -2.92231631      -1.31949037      -2.86020120
H       -2.30605198       0.34219692      -2.83908470
H       -3.81874679       1.02568690      -1.13866992
H       -4.81547851       0.08355275      -2.27001044
H       -5.54955470      -0.91863702       1.26892114
H       -6.12197474       0.26300900       0.07331697
H       -4.36873234       1.85148065       0.71116129
H       -5.12313069       1.22913155       2.18887246
H       -4.22880642      -2.52723193      -1.56973708
H       -5.89482378      -2.01285125      -1.24083288
H       -6.99993620      -3.56010610       0.11536756
H       -7.05818175      -5.12095362       2.01246166
H       -5.02475631      -5.51419421       3.35461828
H       -2.93139188      -4.34522937       2.77521707
H       -2.86366226      -2.80697489       0.86181810
H        4.45904728      -3.51182013       0.53117757
H        3.78478183      -4.71486205      -0.60097877
C       -2.36328156       2.75091279       2.11256721
C        4.14955778      -2.76908072      -1.43360664
N       -2.62376462       3.26925712       0.77518832
H       -3.22428359       2.97517035       2.74940154
H       -1.46741561       3.20814318       2.56444490
O        4.67899754      -3.19090746      -2.44163234
N        3.86439591      -1.47687325      -1.21396636
C       -3.02120238       4.66801687       0.84491218
C       -1.46352423       3.07280106      -0.08415301
C        4.23611696      -0.40749753      -2.10651844
H        3.51196856      -1.19661679      -0.31001037
C       -3.39955332       5.27802712      -0.50550763
H       -3.89479848       4.71896925       1.50372446
H       -2.22269684       5.28341486       1.29590097
C       -1.84382862       3.17764016      -1.56722469
H       -0.66137822       3.78515595       0.15891031
H       -1.08408026       2.06649770       0.10085068
C        3.38645095       0.82732454      -1.81229945
H        5.30332867      -0.18094755      -1.99403610
H        4.07558485      -0.74338134      -3.13463912
C       -2.20704050       5.60587744      -1.40094679
H       -4.10015158       4.62913726      -1.03004779
H       -3.91437347       6.21765220      -0.29295716
N       -1.72636857       4.47748097      -2.19075550
H       -2.88584111       2.85698789      -1.66821302
H       -1.22894733       2.47826730      -2.13580503
N        3.44125326       1.18446801      -0.40485227
H        2.34238542       0.60748417      -2.04976810
H        3.73049574       1.64428748      -2.46980707
H       -1.40858275       6.03491097      -0.77892122
H       -2.50707473       6.37514735      -2.12296306
C       -0.42578991       4.74117012      -2.78747289
C        2.39644804       2.10230661      -0.00409487
C        4.77530778       1.54148061       0.06614946
C        0.70624342       4.78781935      -1.76265902
H       -0.23314150       3.97152736      -3.53903547
H       -0.48330429       5.71490356      -3.28087602
C        2.45699435       3.50023803      -0.65435955
H        1.43838465       1.64340978      -0.25763941
H        2.44178607       2.19777802       1.08297781
C        5.43903407       0.35461291       0.72190216
H        5.40855014       1.92313418      -0.74707223
H        4.68745734       2.33793348       0.81191662
O        0.90193388       5.75822658      -1.05019658
N        1.44693840       3.66429051      -1.67768298
H        3.45055377       3.66566529      -1.08836502
H        2.28222001       4.29107294       0.08018259
C        6.72752435      -0.03985377       0.39439539
C        4.73614319      -0.37137038       1.67721994
H        1.19637442       2.84559749      -2.21108803
C        7.30013948      -1.14540325       1.00025177
H        7.29085908       0.51915314      -0.34006044
C        5.30619791      -1.47454902       2.28473801
H        3.73557948      -0.05994431       1.93959850
C        6.59040900      -1.86686300       1.94366209
H        8.30199768      -1.44611426       0.73178715
H        4.74968680      -2.02639369       3.02892031
H        7.03772257      -2.73073450       2.41329286
116
Properties=species:S:1:pos:R:3 energy=-1513373.8201106698 pbc="F F F"
O       -2.84896036      -3.77355805      -2.29614052
O       -0.58849985       0.82255977       0.68552485
N        2.35122616      -2.10124544      -0.00584683
N        0.63305846      -3.45231827      -1.95220933
N       -1.52004377      -4.46473670      -0.60016020
N       -3.58078165      -2.92937445       2.11155791
N       -1.94909210      -0.19413678       2.12810744
C        3.39536015      -2.87953072      -0.63128548
C        2.94409059      -4.09002530      -1.45691455
C        1.93580153      -3.72143670      -2.54704850
C        0.39682351      -2.04282043      -1.67285584
C        1.53074117      -1.32387974      -0.90765784
C       -0.48017942      -3.99836849      -2.70869904
C       -1.74829242      -4.04141202      -1.86043825
C       -2.54005663      -4.39702009       0.41815460
C       -2.55900758      -3.01399477       1.09156295
C       -3.28553141      -1.99654611       3.17153543
C       -3.18907367      -0.50072829       2.79863681
C       -1.72405065       0.65759395       1.12088357
C       -4.96094586      -2.95673045       1.64334166
C       -5.41005304      -1.81634274       0.75612687
C       -6.17351518      -0.77759084       1.28176322
C       -6.56481016       0.28909493       0.49215920
C       -6.19394238       0.33609270      -0.84133467
C       -5.45283547      -0.70155117      -1.38008790
C       -5.07105089      -1.77606806      -0.59257780
C        1.61466677      -2.74237739       1.05992247
H       -0.55231137      -4.53220701      -0.31811763
H       -1.13019098      -0.69091458       2.48465882
H        4.07231239      -3.22183122       0.15867040
H        3.95828681      -2.19714511      -1.27638476
H        2.48391252      -4.83280088      -0.80237744
H        3.82467288      -4.54183378      -1.91729903
H        2.30456367      -2.86723739      -3.13186315
H        1.84291205      -4.56986516      -3.22954626
H       -0.52446951      -1.98195459      -1.08647398
H        0.22033546      -1.47926360      -2.60652574
H        2.21203471      -0.85114902      -1.61888661
H        1.05078010      -0.53346098      -0.32236565
H       -0.24736043      -5.02896903      -2.99215767
H       -0.70108781      -3.42807357      -3.62604625
H       -2.36363156      -5.17240151       1.16551861
H       -3.48903165      -4.59170746      -0.08438042
H       -1.59594444      -2.85796477       1.58378170
H       -2.66915629      -2.24579186       0.30939440
H       -2.33306252      -2.29709386       3.61904756
H       -4.06658180      -2.10323678       3.92915925
H       -4.03127428      -0.23180308       2.16372321
H       -3.24994228       0.08283203       3.72803269
H       -5.59300156      -2.98945068       2.53537707
H       -5.10062529      -3.89830616       1.10558091
H       -6.47088819      -0.81011785       2.32180073
H       -7.16044342       1.08375465       0.91751890
H       -6.48971822       1.17201034      -1.45746864
H       -5.17360203      -0.68513080      -2.42337171
H       -4.52007670      -2.58517582      -1.04820604
H        0.68518174      -3.22081716       0.72715176
H        2.24086862      -3.51186418       1.52119669
C       -2.93968012       1.39805761       0.55516817
C        1.26914874      -1.73125937       2.15516637
N       -2.65264027       2.53563443      -0.29347399
H       -3.53166891       0.68022032      -0.02294369
H       -3.55784036       1.75599752       1.38350143
O        0.26673207      -1.83823158       2.85005338
N        2.20646458      -0.79577273       2.30324699
C       -1.96140195       3.59999792       0.41671461
C       -2.05999628       2.14949534      -1.56410296
C        2.11042970       0.37489116       3.13683497
H        2.88232144      -0.71804760       1.54831602
C       -2.25341098       4.96407198      -0.21548418
H       -2.35236882       3.60468856       1.43785382
H       -0.87696151       3.43183987       0.47744775
C       -1.87975258       3.32873343      -2.52752398
H       -1.07831270       1.67179935      -1.42793417
H       -2.73704203       1.42049752      -2.02019706
C        2.12519654       1.62404410       2.24152802
H        1.18399341       0.32343969       3.71135052
H        2.95763854       0.38359719       3.83168599
C       -1.25845043       5.34771575      -1.31300248
H       -3.26853087       4.92999340      -0.61160104
H       -2.22529026       5.73624217       0.55473052
N       -0.81454821       4.19106671      -2.05910802
H       -2.82599944       3.87116716      -2.63443717
H       -1.61925214       2.91764455      -3.50647080