40
Properties=species:S:1:pos:R:3 energy=-634323.4871873222 pbc="F F F"
O        3.04213977      -0.99818079      -0.57488270
C        3.67569063      -0.05213735      -0.18631978
O        5.00121517       0.02611286      -0.29063092
H        5.36132327      -0.76289005      -0.72673480
C        3.07616712       1.18804230       0.47177478
C        3.58896948       1.34337617       1.89965181
H        3.27514822       0.49280447       2.50116913
H        4.67340207       1.40265653       1.90215025
H        3.18044571       2.24996431       2.33718172
H        3.36706993       2.04911992      -0.14237732
N        1.63782864       1.08712695       0.45290147
H        1.22161028       0.45343803       1.13499544
C        0.96146946       1.30419942      -0.69390511
O        1.41902922       1.89140226      -1.65192653
C       -0.46715700       0.73268830      -0.69001661
H       -0.91075513       0.97386884      -1.66112083
N       -0.39771401      -0.71745711      -0.60627758
H       -0.44509626      -1.23828132      -1.47302596
C       -0.01174288      -1.45071698       0.44559707
O        0.22621925      -1.01727501       1.56468196
C        0.10001869      -2.93207176       0.11296074
H       -0.89236346      -3.38517801       0.21471556
H        0.76255996      -3.39089560       0.86153762
N        0.54210537      -3.08452517      -1.26540228
H        0.61942183      -4.06653057      -1.50641333
H        1.46342019      -2.66579345      -1.36527392
C       -1.34179340       1.34068159       0.42070864
H       -0.94082245       1.06515263       1.39478916
H       -1.30787031       2.42663902       0.31608963
C       -2.75342253       0.84276809       0.28791699
C       -3.62952615       1.43700550      -0.61187978
H       -3.30082519       2.28801274      -1.19180930
C       -4.91642159       0.95355062      -0.76498654
H       -5.58990872       1.42716992      -1.46445723
C       -5.34154384      -0.13530317      -0.02257296
H       -6.34624690      -0.51347713      -0.14179470
C       -4.47464631      -0.73449546       0.87497100
H       -4.80229863      -1.58253852       1.45871035
C       -3.18822240      -0.24809436       1.02896568
H       -2.51432220      -0.71480203       1.73242889
40
Properties=species:S:1:pos:R:3 energy=-634322.2296718982 pbc="F F F"
O        3.04699691      -0.37079885      -0.51851576
C        3.02891853       0.70684392       0.01629346
O        4.09787249       1.49834057       0.08829039
H        4.85970760       1.09191724      -0.35538513
C        1.80308815       1.33052652       0.67790936
C        2.05523070       1.59394420       2.15869787
H        1.18860676       2.08379474       2.59387419
H        2.22578428       0.65404931       2.67977120
H        2.92456020       2.23319913       2.28145434
H        1.59603644       2.26770722       0.14617556
N        0.66966283       0.45883002       0.49781333
H        0.63886607      -0.37353951       1.08451303
C        0.03681803       0.41184696      -0.69241521
O        0.15345764       1.25520199      -1.55628218
C       -0.85256139      -0.83044006      -0.87573795
H       -1.32672773      -0.72993905      -1.85695926
N       -0.01107534      -2.01666193      -0.92356238
H        0.29684833      -2.33071656      -1.83625590
C        0.69426698      -2.54122157       0.08978017
O        0.60306163      -2.20935560       1.26281761
C        1.64505669      -3.63838254      -0.36935853
H        1.09008574      -4.58150632      -0.42069909
H        2.42363538      -3.74376632       0.40008180
N        2.14301478      -3.31693023      -1.69923845
H        2.66570816      -2.44563825      -1.65340530
H        2.77503082      -4.04015151      -2.02492836
C       -1.94442638      -0.92789122       0.20362972
H       -2.61806289      -1.74534027      -0.06359601
H       -1.48856856      -1.16030026       1.16492925
C       -2.69615572       0.37136299       0.27847158
C       -3.66625652       0.67785945      -0.66692284
H       -3.90507470      -0.04042267      -1.43848866
C       -4.33008369       1.89058731      -0.62811395
H       -5.08194974       2.11653153      -1.37012333
C       -4.03021745       2.81438802       0.35812230
H       -4.54599598       3.76285216       0.38773112
C       -3.06724343       2.51640680       1.30643317
H       -2.83097841       3.23287007       2.07989154
C       -2.40460903       1.30260680       1.26585753
H       -1.65466940       1.07267230       2.00858046
40
Properties=species:S:1:pos:R:3 energy=-634322.8523540562 pbc="F F F"
O        3.43853264      -0.88347182      -0.56093388
C        3.94053108       0.11702187      -0.12725002
O        5.25646754       0.34384387      -0.15446847
H        5.72001293      -0.39718239      -0.57648954
C        3.17424306       1.27137583       0.51184175
C        3.58849538       1.44933865       1.96987949
H        4.65888818       1.62106813       2.03448167
H        3.06379836       2.29874115       2.39849817
H        3.33369931       0.55729425       2.53807825
H        3.39967762       2.17373900      -0.06976876
N        1.75883400       1.01977764       0.41155184
H        1.37521343       0.28665850       1.01266037
C        1.07403169       1.34791831      -0.69645522
O        1.48939031       2.08175603      -1.56983938
C       -0.34702324       0.75675077      -0.75238200
H       -0.76311872       1.04427815      -1.72249357
N       -0.33725923      -0.69568682      -0.71562905
H       -0.69143234      -1.18983960      -1.52459931
C       -0.06654473      -1.48732430       0.32763879
O        0.36609555      -1.11823764       1.41065816
C       -0.33560800      -2.95815618       0.03557677
H       -0.56405830      -3.45524114       0.98980236
H        0.59852503      -3.38186648      -0.34672678
N       -1.36170347      -3.10126509      -0.98685362
H       -1.43860108      -4.06823417      -1.28066738
H       -2.26453780      -2.81557436      -0.61885070
C       -1.23559560       1.34087091       0.36540128
H       -0.80423026       1.09442902       1.33503000
H       -1.25411954       2.42578535       0.25099152
C       -2.62005365       0.76842976       0.25470614
C       -3.50938031       1.25046275      -0.69817178
H       -3.21754771       2.08046654      -1.32580808
C       -4.76194286       0.68237487      -0.84430678
H       -5.44549966       1.06913805      -1.58587314
C       -5.14033752      -0.38115326      -0.04199520
H       -6.11753124      -0.82662012      -0.15686343
C       -4.26235538      -0.86646962       0.91183058
H       -4.55512791      -1.69136574       1.54592216
C       -3.01022982      -0.29462430       1.05922902
H       -2.32987383      -0.67203629       1.80886340
40
Properties=species:S:1:pos:R:3 energy=-634322.5514526636 pbc="F F F"
O        2.85617433      -1.03577390       0.68751888
C        3.57233811      -0.10212672       0.43031159
O        4.70388960       0.13954598       1.08179415
H        4.82524034      -0.49765273       1.80416962
C        3.30613707       0.88465148      -0.70654073
C        3.88451838       2.26959486      -0.42624065
H        3.42416417       2.68163783       0.46681849
H        4.95782828       2.20337876      -0.27827629
H        3.67527893       2.92403270      -1.26810046
H        3.77617684       0.46227320      -1.60239996
N        1.87569194       0.93482926      -0.94444113
H        1.50461455       0.38970138      -1.71937965
C        1.03773473       1.16098187       0.09323413
O        1.38556979       1.59421686       1.17066016
C       -0.41017611       0.74679370      -0.22518108
H       -0.65917466       1.02935163      -1.25430094
N       -0.44139476      -0.70092560      -0.14657129
H       -0.59138174      -1.12838758       0.75842342
C        0.04442023      -1.50403062      -1.10157870
O        0.42257369      -1.11097623      -2.19563935
C        0.07563413      -2.96704880      -0.68848798
H        0.83246292      -3.47158542      -1.30732097
H       -0.89932541      -3.41095010      -0.91792615
N        0.30254130      -3.05929219       0.74698922
H        0.33704544      -4.03079182       1.03605549
H        1.20086568      -2.63700939       0.96963260
C       -1.40270672       1.35133621       0.76843297
H       -1.07865421       1.09245401       1.77782374
H       -1.36335823       2.43732879       0.67024289
C       -2.79060349       0.84440775       0.50071432
C       -3.56133979       1.41280195      -0.50587148
H       -3.16888693       2.24763738      -1.06917527
C       -4.82379011       0.92415348      -0.78911217
H       -5.41301686       1.37726583      -1.57299549
C       -5.33228208      -0.14385665      -0.06938039
H       -6.31798004      -0.52625644      -0.28987299
C       -4.57259403      -0.71649162       0.93568673
H       -4.96445365      -1.54845391       1.50255797
C       -3.30976947      -0.22548429       1.21757417
H       -2.72645041      -0.67391350       2.00936932
40
Properties=species:S:1:pos:R:3 energy=-634322.4831344918 pbc="F F F"
O        3.11599049      -0.43637007       0.54553957
C        3.03996582       0.72259555       0.22107845
O        3.66027306       1.69660281       0.87104739
H        4.09538171       1.35135175       1.66701626
C        2.27959878       1.19584610      -1.02001690
C        2.01675394       2.69821689      -1.01422836
H        1.45870260       2.97121284      -1.90591092
H        1.43424193       2.96055619      -0.13608280
H        2.95468647       3.24440693      -0.99350353
H        2.88539415       0.91946004      -1.88997663
N        1.03865435       0.44260200      -1.08681584
H        0.92535012      -0.25499886      -1.81536911
C        0.32635073       0.28815211       0.04888124
O        0.56483336       0.90035205       1.07049175
C       -0.73445877      -0.81682397      -0.05148094
H       -1.15743059      -0.83627553      -1.06179920
N       -0.00510861      -2.05769611       0.14605092
H        0.22035801      -2.33028036       1.09538399
C        0.77927047      -2.58614005      -0.80993364
O        0.77185131      -2.21618133      -1.97295670
C        1.67167683      -3.70519233      -0.29719748
H        2.51493541      -3.80325943      -0.99676925
H        1.10365032      -4.64175833      -0.31925941
N        2.05098439      -3.42307328       1.08023355
H        2.65246300      -4.15764692       1.43680612
H        2.57695648      -2.55243754       1.10991797
C       -1.83316799      -0.65386634       0.99883101
H       -2.37153146      -1.59867694       1.09290095
H       -1.36115860      -0.41093594       1.95274090
C       -2.77660026       0.44522353       0.59418374
C       -2.54397864       1.75673344       0.98661302
H       -1.68733335       1.97901610       1.60476667
C       -3.39485893       2.77079422       0.58359530
H       -3.20498756       3.78738798       0.89577861
C       -4.48837334       2.48521171      -0.21607208
H       -5.15418714       3.27638752      -0.52834573
C       -4.72605053       1.18053983      -0.61340419
H       -5.57811273       0.95120869      -1.23684544
C       -3.87315822       0.16778235      -0.21200651
H       -4.06246053      -0.84987504      -0.52371683
40
Properties=species:S:1:pos:R:3 energy=-634323.6707321306 pbc="F F F"
O        2.54812974      -0.87337988       1.43612985
C        2.83416019       0.28624588       1.27571426
O        3.98464434       0.81430603       1.67322357
H        4.55143199       0.14560299       2.09169914
C        1.91142318       1.30870785       0.63861797
C        1.34255671       2.22336575       1.73213810
H        0.70626279       2.97145482       1.26935167
H        0.74878036       1.64320524       2.43523086
H        2.15114704       2.71925332       2.26152683
H        2.46994568       1.91318101      -0.08490677
N        0.86861746       0.60351526      -0.06145005
H        0.62310257      -0.30113321       0.31687141
C        0.42738728       0.96239008      -1.28419625
O        0.73625945       2.00066675      -1.82614243
C       -0.54722725      -0.04075303      -1.92374902
H       -0.24380304      -0.14672604      -2.97159190
N       -0.48245617      -1.34440098      -1.31512137
H       -0.99494792      -1.49859126      -0.45548983
C        0.44682609      -2.26956992      -1.64200467
O        1.18104822      -2.18980234      -2.60122886
C        0.44898274      -3.44517506      -0.66619349
H        1.39517446      -3.98879787      -0.79230509
H       -0.36854940      -4.11753593      -0.94573148
N        0.20481200      -2.95516928       0.68729516
H        0.07116998      -3.73566634       1.32137367
H        1.02166498      -2.44501355       1.01684439
C       -1.97858122       0.52314067      -1.84706786
H       -1.98922246       1.47907311      -2.37147015
H       -2.65442899      -0.16752460      -2.35388026
C       -2.39003926       0.70886606      -0.41414850
C       -2.08454980       1.88745260       0.25618054
H       -1.59852686       2.68934614      -0.27976290
C       -2.40010300       2.03818117       1.59439703
H       -2.16100906       2.96056372       2.10340532
C       -3.02438552       1.01080797       2.28219684
H       -3.26913287       1.12803418       3.32751476
C       -3.34296030      -0.16252452       1.62135426
H       -3.83901033      -0.96388449       2.14893655
C       -3.02848601      -0.31144503       0.28132096
H       -3.29870029      -1.22359417      -0.23277216
40
Properties=species:S:1:pos:R:3 energy=-634321.4700584159 pbc="F F F"
O        5.33312482       0.19279234       0.29911390
C        4.15454866       0.19492125       0.06971579
O        3.54465640      -0.78837640      -0.59765410
H        4.19092981      -1.46168527      -0.86338861
C        3.19570862       1.30503092       0.48569046
C        3.46947871       1.71790052       1.93030893
H        2.90298691       2.61091208       2.17801683
H        3.17913206       0.91622312       2.60583028
H        4.52985437       1.91658863       2.05553313
H        3.38383776       2.14901897      -0.19334566
N        1.82039405       0.91981019       0.30342393
H        1.44962078       0.17116829       0.89106544
C        1.09630699       1.33815838      -0.74281570
O        1.47169613       2.15452488      -1.56006447
C       -0.32552223       0.74882895      -0.80452598
H       -0.74926731       1.07576384      -1.75848959
N       -0.35663846      -0.70442489      -0.81312268
H       -0.82579575      -1.15042747      -1.59207231
C       -0.11725920      -1.53391847       0.20969751
O        0.41268378      -1.22887019       1.26820229
C       -0.55069058      -2.96727837      -0.08018704
H       -0.78657587      -3.44545433       0.88171156
H        0.31044450      -3.49004122      -0.50855161
N       -1.63320553      -2.98790228      -1.05275155
H       -2.48106858      -2.60895200      -0.63997323
H       -1.83033071      -3.93771125      -1.34637567
C       -1.18517973       1.31703667       0.34560352
H       -0.72679203       1.05712329       1.29967673
H       -1.20614737       2.40348531       0.24792952
C       -2.57212574       0.74543114       0.26665489
C       -3.47546675       1.21224918      -0.68080955
H       -3.19349366       2.03281284      -1.32485794
C       -4.72947848       0.64124594      -0.80026743
H       -5.42385115       1.01633800      -1.53751304
C       -5.09592506      -0.40989190       0.02378634
H       -6.07425777      -0.85753068      -0.07022989
C       -4.20475109      -0.87906762       0.97349451
H       -4.48824622      -1.69308393       1.62564597
C       -2.95066583      -0.30434960       1.09402301
H       -2.26056873      -0.66930373       1.84112283
40
Properties=species:S:1:pos:R:3 energy=-634321.517680409 pbc="F F F"
O        5.46768237       0.83423023      -1.07091425
C        4.27155117       0.74385162      -1.01936662
O        3.50026916       0.67599109      -2.10576725
H        4.04346647       0.71911121      -2.90894951
C        3.46510816       0.70569921       0.27409699
C        4.13463972      -0.22972511       1.28022319
H        5.19008409       0.01531126       1.35565477
H        3.66889742      -0.12504301       2.25603442
H        4.03446467      -1.26157913       0.95020880
H        3.44917806       1.73270138       0.66609041
N        2.09436166       0.33570567       0.03330091
H        1.89583083      -0.61463762      -0.27154254
C        1.07167504       1.18729463       0.20743270
O        1.18471429       2.33479841       0.58278169
C       -0.28687539       0.52921765      -0.11544731
H       -0.20607608       0.07915151      -1.11394343
N       -0.56611058      -0.53997698       0.82265890
H       -1.23940661      -0.37461172       1.55942509
C       -0.11211580      -1.79083172       0.69510311
O        0.71899447      -2.13361721      -0.13213822
C       -0.70738224      -2.76200756       1.70704032
H        0.01035200      -2.85612385       2.52843447
H       -0.78282099      -3.74532066       1.21974955
N       -1.95911759      -2.25157837       2.24636407
H       -2.68274499      -2.27130545       1.53364998
H       -2.27266386      -2.82940950       3.01800054
C       -1.42110799       1.55663239      -0.07832552
H       -1.41808880       2.04147406       0.89909104
H       -1.21288629       2.31900411      -0.82989988
C       -2.73849168       0.88707733      -0.34463010
C       -3.59702752       0.56124634       0.69766782
H       -3.34471301       0.84389790       1.71028141
C       -4.78265267      -0.11029887       0.45215464
H       -5.44105443      -0.35476327       1.27322730
C       -5.12395941      -0.46674356      -0.84076628
H       -6.04827332      -0.99101088      -1.03355994
C       -4.27679239      -0.14233217      -1.88744407
H       -4.54044580      -0.41332405      -2.89921289
C       -3.09293312       0.52823524      -1.63973512
H       -2.43602060       0.78078725      -2.45974009
40
Properties=species:S:1:pos:R:3 energy=-634322.4087741828 pbc="F F F"
O        3.60049935       0.57759329      -2.20049532
C        4.12615692       0.82155553      -1.15079381
O        5.37938391       1.27602454      -1.05043475
H        5.77325254       1.37815509      -1.93168171
C        3.47107839       0.66155251       0.21678495
C        4.23561478      -0.35751232       1.06058073
H        3.79235459      -0.41957323       2.05078369
H        4.18444726      -1.33855055       0.59322864
H        5.27557957      -0.05871455       1.15320178
H        3.47741453       1.64587181       0.70182126
N        2.09381864       0.27193458       0.05606277
H        1.89400494      -0.67745979      -0.25047364
C        1.07763280       1.13958365       0.18744909
O        1.20016816       2.29820357       0.52416739
C       -0.28538405       0.48096167      -0.11223617
H       -0.20154756      -0.01726858      -1.08720459
N       -0.58340236      -0.53787980       0.87468280
H       -1.26163231      -0.32925943       1.59560099
C       -0.14097615      -1.79828041       0.81302676
O        0.69277379      -2.19151162       0.01273934
C       -0.75727924      -2.71144818       1.86668153
H       -0.05216628      -2.76733397       2.70239678
H       -0.83339570      -3.71819476       1.42997983
N       -2.01285237      -2.16585973       2.36113227
H       -2.72360097      -2.20931813       1.63655503
H       -2.34616059      -2.70755041       3.15060214
C       -1.40803701       1.52146865      -0.13449555
H       -1.40820572       2.05256166       0.81868356
H       -1.18434108       2.24414544      -0.92008110
C       -2.73031499       0.85417115      -0.38120885
C       -3.60292032       0.58916799       0.66668878
H       -3.35708706       0.91737115       1.66714139
C       -4.79384985      -0.08022692       0.44167069
H       -5.46304797      -0.27737688       1.26679088
C       -5.12629909      -0.49550882      -0.83591854
H       -6.05449335      -1.01872974      -1.01256486
C       -4.26485842      -0.23219341      -1.88817779
H       -4.52149237      -0.54929135      -2.88827975
C       -3.07578415       0.43641836      -1.66108136
H       -2.40707837       0.64013134      -2.48500933
40
Properties=species:S:1:pos:R:3 energy=-634320.8751701588 pbc="F F F"
O        3.22826371      -0.16750913      -0.41410965
C        3.06895348       0.97964809      -0.09512992
O        4.05065150       1.88417297      -0.11731582
H        4.87631226       1.48249407      -0.43207650
C        1.74511664       1.57741734       0.37077638
C        1.87014243       2.15380087       1.77817118
H        0.93186968       2.62080538       2.06466006
H        2.09911081       1.35930508       2.48540848
H        2.66155693       2.89685667       1.80751371
H        1.47213499       2.36196218      -0.34608407
N        0.72172852       0.56464870       0.32053383
H        0.79270764      -0.19318885       0.99989980
C        0.04016574       0.32931921      -0.81524147
O        0.03829569       1.06793486      -1.77786203
C       -0.78314706      -0.97246961      -0.78955495
H       -1.29523269      -1.02756250      -1.75485888
N        0.09097009      -2.13069122      -0.69907231
H        0.25741046      -2.67216239      -1.53808827
C        0.84144217      -2.49971883       0.34648237
O        0.85335219      -1.95287991       1.44019153
C        1.73368197      -3.69719128       0.04655765
H        1.87377196      -4.26213027       0.97940056
H        2.70379305      -3.27712182      -0.23826389
N        1.21994764      -4.47902030      -1.06847169
H        1.92283496      -5.12982352      -1.39935892
H        0.41301466      -5.02066774      -0.77488801
C       -1.83091888      -0.94813192       0.33946565
H       -2.50267024      -1.79957543       0.20570173
H       -1.32776502      -1.05378979       1.29976129
C       -2.60006066       0.34208282       0.29217839
C       -2.30567542       1.37376670       1.17313409
H       -1.54146985       1.22982285       1.92294500
C       -2.98270581       2.57788288       1.09857503
H       -2.74358809       3.37359531       1.78935351
C       -3.96346000       2.76516350       0.14024515
H       -4.48999989       3.70616850       0.07914175
C       -4.26718238       1.74035617      -0.73919954
H       -5.03289195       1.87983944      -1.48828089
C       -3.58912582       0.53738927      -0.66293946
H       -3.83071042      -0.25936183      -1.35215797
40
Properties=species:S:1:pos:R:3 energy=-634320.838469331 pbc="F F F"
O        3.23482516      -0.19765506      -0.31538596
C        3.08904614       0.88036660       0.19430480
O        4.09327457       1.74125878       0.37551386
H        4.92284759       1.37351790       0.03111869
C        1.75937008       1.43120239       0.69956154
C        1.83087155       1.75538613       2.18903146
H        0.89102943       2.19554181       2.51072668
H        2.00749219       0.84539883       2.75872761
H        2.63702555       2.45767725       2.37935344
H        1.53912631       2.33463489       0.11708771
N        0.71573395       0.47472331       0.43221909
H        0.73913542      -0.39212647       0.96955653
C        0.07657506       0.46426212      -0.75138511
O        0.13242763       1.36051576      -1.56736859
C       -0.77827829      -0.79550717      -0.98679871
H       -1.25097024      -0.66379749      -1.96466466
N        0.06350378      -1.97790017      -1.07113139
H        0.25299435      -2.36698698      -1.98631619
C        0.76100762      -2.54807223      -0.08060475
O        0.73937074      -2.20383564       1.09261113
C        1.63791298      -3.69945774      -0.55514201
H        1.72534893      -4.42457668       0.26677438
H        2.62842621      -3.26443799      -0.72350711
N        1.15470492      -4.25583232      -1.81031674
H        1.85629874      -4.85820668      -2.22504676
H        0.32410270      -4.81683423      -1.64876405
C       -1.87074422      -0.93821720       0.08996230
H       -2.56320059      -1.72391393      -0.22204863
H       -1.41103299      -1.23793264       1.03085806
C       -2.59593867       0.36743805       0.25698589
C       -3.52939280       0.78005197      -0.68485403
H       -3.76063723       0.13925060      -1.52391327
C       -4.16529311       2.00163725      -0.55818781
H       -4.88744015       2.31165263      -1.29928073
C       -3.87479430       2.82750875       0.51397716
H       -4.36831915       3.78318599       0.61174996
C       -2.94966850       2.42239268       1.46026029
H       -2.72134080       3.06182365       2.30082746
C       -2.31450703       1.20013312       1.33147919
H       -1.59370346       0.88584804       2.07220917
40
Properties=species:S:1:pos:R:3 energy=-634322.4455861575 pbc="F F F"
O        0.56079341       2.81481111      -1.88082138
C        1.27523739       3.00919697      -0.93425425
O        1.66427065       4.21873879      -0.54261349
H        1.29846517       4.90395379      -1.12569749
C        1.86518758       1.90666042      -0.07558579
C        3.33574394       1.69901260      -0.46275312
H        3.41212905       1.41701538      -1.51026354
H        3.89810717       2.61250161      -0.29233157
H        3.75048043       0.90436237       0.15084426
H        1.81124781       2.18633425       0.98233984
N        1.08452788       0.71021133      -0.29142036
H        0.50401083       0.71667470      -1.11985821
C        0.94275890      -0.23894061       0.64979176
O        1.56831026      -0.25299178       1.69134887
C       -0.09497831      -1.30830553       0.31974253
H       -0.13114830      -1.51440773      -0.75467600
N        0.28035404      -2.52074563       1.00459660
H        0.81670146      -2.38266234       1.85052336
C        0.03804310      -3.75117312       0.50970814
O       -0.55941140      -3.94270965      -0.53063959
C        0.57271330      -4.89681464       1.37501227
H        0.12327126      -4.82815178       2.37049014
H        1.65612343      -4.78402293       1.48085489
N        0.29426739      -6.20981816       0.83098609
H        0.69705259      -6.27923734      -0.09927710
H       -0.70924243      -6.31787500       0.71367959
C       -1.48355754      -0.81691240       0.79988426
H       -2.21385871      -1.58180912       0.52939932
H       -1.45477709      -0.72860691       1.88781003
C       -1.84647325       0.50100827       0.18122174
C       -1.69690429       1.68387330       0.89433799
H       -1.34269682       1.64920298       1.91507473
C       -1.99679105       2.90139419       0.30936622
H       -1.87848116       3.81294757       0.87774426
C       -2.44628565       2.95117571      -0.99872856
H       -2.67957293       3.90049471      -1.45694421
C       -2.59507458       1.77844890      -1.71879980
H       -2.94292268       1.81259748      -2.74014140
C       -2.29679652       0.56166036      -1.13256779
H       -2.41790386      -0.35357240      -1.69440344
40
Properties=species:S:1:pos:R:3 energy=-634319.9319020788 pbc="F F F"
O        3.47784234       2.42678835      -1.02476806
C        3.79659333       1.69642022      -0.12785753
O        4.46926868       2.09650773       0.94928775
H        4.55393229       3.06300291       0.95264512
C        3.57905155       0.18126308      -0.13102420
C        4.38214324      -0.45175694      -1.26076793
H        4.11939130       0.02200237      -2.20356886
H        5.44661200      -0.32189386      -1.08459018
H        4.16043762      -1.51455206      -1.32112775
H        3.89836092      -0.20816319       0.84530702
N        2.16643685      -0.06438647      -0.33664727
H        1.87164547      -0.86498082      -0.89278065
C        1.24732835       0.70587833       0.25808426
O        1.51919858       1.64007441       0.98557704
C       -0.19488814       0.28323136      -0.08533173
H       -0.26157933       0.20670423      -1.17891800
N       -0.48674904      -1.02570629       0.46518407
H       -1.09158457      -1.08607986       1.27422399
C       -0.13886089      -2.18186170      -0.10774523
O        0.60181106      -2.27028010      -1.07581603
C       -0.73253557      -3.40534825       0.57981490
H        0.03290380      -3.80222370       1.25455308
H       -0.91709762      -4.16496629      -0.19414678
N       -1.89995271      -3.04461936       1.37044197
H       -2.67238295      -2.79114183       0.76132583
H       -2.20017904      -3.83061265       1.93583712
C       -1.20576852       1.30294084       0.44452968
H       -1.05960091       1.40945577       1.52057966
H       -0.98794921       2.26568056      -0.01927494
C       -2.60584408       0.86021145       0.13074396
C       -3.11804466       1.01412807      -1.15210577
H       -2.51894793       1.50073034      -1.90823340
C       -4.38457582       0.55588921      -1.46590854
H       -4.77085470       0.68425320      -2.46635893
C       -5.15767803      -0.06678569      -0.49986246
H       -6.14649323      -0.42561204      -0.74463273
C       -4.65887295      -0.22126829       0.78172349
H       -5.25814766      -0.70066226       1.54223296
C       -3.39079360       0.23875459       1.09377325
H       -3.01505496       0.12263939       2.10096500
40
Properties=species:S:1:pos:R:3 energy=-634324.0399524001 pbc="F F F"
O        1.80164612       1.87039226       1.83473455
C        2.39120843       2.32000932       0.89087528
O        3.53326309       2.99567724       0.99067958
H        3.82502950       3.04601655       1.91540620
C        1.92256466       2.20972396      -0.55919981
C        1.39995807       3.55715683      -1.04485583
H        1.07463154       3.47435102      -2.07833374
H        0.55616915       3.87433460      -0.43481727
H        2.18555315       4.30433784      -0.97946050
H        2.78408763       1.88915522      -1.15555470
N        0.89632536       1.19776876      -0.66982838
H       -0.05292086       1.48846567      -0.47466366
C        1.21255028      -0.10349325      -0.49456788
O        2.35458148      -0.51669190      -0.46298322
C        0.01052191      -1.03522718      -0.37200467
H       -0.66405159      -0.90199576      -1.22753996