92
Properties=species:S:1:pos:R:3 energy=-1323124.1956033565 pbc="F F F"
N        1.78136780       2.22988168      -0.58182223
N        2.51052674       2.51553032      -1.75872216
N       -1.51495267       1.18278636      -0.17102323
N       -4.42478358       0.55567631      -0.35598768
C        4.48494833       3.10709024      -0.47075950
C        3.67115803       2.86140795       0.79714696
C        2.18147071       3.07120098       0.52088851
C        3.94406396       2.27526154      -1.63666052
C        0.80375161       1.31174590      -0.67261580
C       -0.20959008       1.18052594       0.45867986
C        0.01604118      -0.12240742       1.25190565
C        1.20505611      -0.03554667       2.16386323
C        2.47017820      -0.37543210       1.70853558
C        3.57011953      -0.31878785       2.55978837
C        3.39199156       0.08288442       3.88227879
C        2.13543496       0.43892201       4.32914891
C        1.04537967       0.38727088       3.47751741
C       -2.53324668       1.91579484       0.31593680
C       -3.79954899       1.84664598      -0.55258178
C       -4.76973488       2.99165521      -0.23175831
C       -4.13100085       4.32914746      -0.59818746
C       -6.08399969       2.80744501      -0.98589125
C       -4.25109993      -0.46291900      -1.21442636
C       -5.02740997      -1.72820630      -0.85833734
C       -6.53384189      -1.46443582      -0.86526610
C       -4.55629799      -2.30439467       0.49069184
C       -3.02684477      -2.44032545       0.55278466
C       -2.42687120      -3.22595420      -0.61918029
C        4.29433427       0.78994439      -1.51575026
C        4.38535190      -1.23356125      -2.71806092
C        3.57158997      -2.06742748      -1.76454738
C        2.18923612      -2.06640422      -1.86264971
C        1.40213623      -2.81639632      -0.98742311
C        2.04303594      -3.57172019      -0.00341886
C        3.42049615      -3.57303408       0.09729228
C        4.18994849      -2.82414814      -0.77736396
C       -0.04483532      -2.75428502      -1.13953374
C       -0.95690448      -3.40016840      -0.41595004
C       -5.01165267      -1.98647311       2.81536259
O        0.67218736       0.64299873      -1.69193774
O        4.81795235      -0.64494875       2.15177744
O       -2.46480758       2.53703216       1.35785984
O       -3.54981098      -0.38485313      -2.20732959
O        4.73783677       0.25213521      -0.53044102
O       -5.03921848      -1.44823301       1.51825880
O        4.05805291       0.16389201      -2.65998492
H        2.09991644       1.93397629      -2.49319348
H       -1.60001666       0.67862307      -1.04534154
H       -4.87518519       0.37059920       0.52889781
H        5.53094745       2.85474045      -0.29776034
H        4.41829177       4.15991281      -0.74993910
H        3.99088949       3.54343049       1.58461870
H        3.83075919       1.84198067       1.14424509
H        1.60545515       2.82468004       1.40981828
H        1.99701041       4.11477187       0.24023890
H        4.37952733       2.62114577      -2.58184944
H       -0.20254618       2.03349803       1.14173127
H        0.13505606      -0.94283835       0.54223015
H       -0.88186992      -0.29862408       1.84796740
H        2.60478620      -0.69937916       0.68630216
H        4.25006658       0.11119633       4.53462923
H        2.00363653       0.75813622       5.35235726
H        0.06471817       0.66645149       3.83320600
H       -3.50690605       1.88610047      -1.60873610
H       -4.95970080       2.97910185       0.84642808
H       -3.89073999       4.35843247      -1.65925214
H       -3.22014498       4.48383939      -0.02722342
H       -4.81612843       5.14395574      -0.37731555
H       -5.90138915       2.78468461      -2.05829898
H       -6.75771773       3.63280114      -0.76892031
H       -6.57487572       1.87995062      -0.70324039
H       -4.80378137      -2.46339628      -1.63547946
H       -6.82786992      -1.01645244      -1.81144235
H       -7.07470822      -2.40059332      -0.74225350
H       -6.81526895      -0.79822059      -0.05491199
H       -5.01556038      -3.30032663       0.61845995
H       -2.75309739      -2.93760023       1.48685028
H       -2.59439792      -1.43793495       0.56756876
H       -2.59665676      -2.68560320      -1.54967019
H       -2.91267127      -4.20415904      -0.68123770
H        5.45356843      -1.34758286      -2.50399164
H        4.18307517      -1.51037292      -3.75523273
H        1.70844071      -1.45522773      -2.61209600
H        1.46223571      -4.15501152       0.69367963
H        3.90278856      -4.15323368       0.86968222
H        5.26620624      -2.82051572      -0.68724492
H       -0.38439515      -2.09209518      -1.92643571
H       -0.67101400      -4.06198406       0.39042963
H       -3.99216662      -2.07231330       3.20510477
H       -5.57320623      -1.29640468       3.44322477
H       -5.48901773      -2.97305314       2.84352057
H        4.85110116      -0.67352665       1.18260298
92
Properties=species:S:1:pos:R:3 energy=-1323123.710504342 pbc="F F F"
N        1.77507608       2.17586722      -0.64095986
N        2.48563003       2.40862118      -1.84039648
N       -1.50122818       1.15307913      -0.11166290
N       -4.31290948       0.66065017      -0.43940292
C        4.46501573       3.09950574      -0.60884259
C        3.66873844       2.90672521       0.67946271
C        2.17418750       3.08406522       0.40757567
C        3.92552454       2.20192776      -1.72618584
C        0.81765513       1.23189996      -0.66751204
C       -0.17906942       1.14132823       0.48326950
C        0.03924692      -0.15009365       1.29523500
C        1.22254049      -0.04226643       2.21288570
C        2.49762399      -0.33894390       1.75539108
C        3.59534001      -0.25399144       2.60680114
C        3.40517119       0.13199493       3.93232386
C        2.13795041       0.44267353       4.38230864
C        1.04991251       0.36313078       3.53010741
C       -2.41983829       2.07192586       0.24614452
C       -3.72057472       1.97186067      -0.56813897
C       -4.72134361       3.07934619      -0.19769868
C       -5.82966888       3.15240292      -1.24479686
C       -5.31010045       2.88565261       1.19892090
C       -4.13782329      -0.31498026      -1.34391465
C       -4.95939310      -1.57343645      -1.07248853
C       -6.45504524      -1.26393687      -1.15967431
C       -4.58783553      -2.20852917       0.28116955
C       -3.06987264      -2.39558493       0.43034405
C       -2.42921041      -3.17412422      -0.72451290
C        4.30584099       0.73220905      -1.53525617
C        4.47125744      -1.34076784      -2.63719358
C        3.61963359      -2.13491012      -1.68271906
C        2.24199635      -2.12565981      -1.83022371
C        1.41578256      -2.82699364      -0.95129827
C        2.01260863      -3.54598035       0.08599900
C        3.38594476      -3.55895572       0.23359491
C        4.19441265      -2.85529202      -0.64348311
C       -0.02377698      -2.74606327      -1.15403145
C       -0.97171660      -3.37510596      -0.46275153
C       -5.19500807      -1.96677396       2.58097778
O        0.69003635       0.50578482      -1.64698968
O        4.85230127      -0.53801369       2.19633583
O       -2.23617803       2.88530979       1.12944602
O       -3.40457059      -0.20651921      -2.31094869
O        4.72492160       0.24383178      -0.51372083
O       -5.10777629      -1.37462057       1.31033773
O        4.12492203       0.05335380      -2.65936121
H        2.07551337       1.78262598      -2.53762995
H       -1.63766320       0.57824026      -0.93475332
H       -4.80354862       0.43955606       0.41466287
H        5.51705382       2.87313191      -0.43596637
H        4.37812970       4.13585349      -0.93941967
H        3.98803713       3.63197990       1.42752918
H        3.84497031       1.90796745       1.07580471
H        1.60869876       2.88511743       1.31473172
H        1.97407064       4.10708577       0.06874568
H        4.34146562       2.50893126      -2.69318745
H       -0.14499276       2.00884081       1.14613303
H        0.16728382      -0.97963477       0.59780676
H       -0.86213575      -0.32371414       1.88691200
H        2.64160794      -0.65164232       0.73099703
H        4.26223494       0.18348595       4.58460996
H        1.99608779       0.74909927       5.40809613
H        0.06141974       0.60835644       3.88926149
H       -3.44020001       2.07565774      -1.62557598
H       -4.15953370       4.01843910      -0.19965947
H       -5.41857335       3.35858889      -2.23034327
H       -6.53406451       3.94174990      -0.99410997
H       -6.37044557       2.20938586      -1.29010093
H       -4.51340304       2.77580074       1.92867462
H       -5.96097720       2.01435319       1.23944730
H       -5.90212113       3.75684433       1.46919456
H       -4.71185215      -2.28922105      -1.86025681
H       -7.03021918      -2.18453042      -1.08365780
H       -6.76252504      -0.60097711      -0.35604441
H       -6.68085490      -0.79304540      -2.11355625
H       -5.08302722      -3.19310855       0.34469582
H       -2.86822438      -2.92413555       1.36557643
H       -2.60648666      -1.40922539       0.49663833
H       -2.54785781      -2.61826829      -1.65380608
H       -2.92793513      -4.14281479      -0.82373916
H        5.52916627      -1.43130497      -2.36812318
H        4.32089273      -1.66878465      -3.66822891
H        1.79442880      -1.54466877      -2.62270393
H        1.40039013      -4.08852601       0.78929322
H        3.83415950      -4.11006263       1.04677451
H        5.26664357      -2.85697479      -0.51397016
H       -0.32383273      -2.07895093      -1.95247694
H       -0.72808122      -4.04328373       0.35226289
H       -5.72086609      -2.92751867       2.53357054
H       -4.20982606      -2.12192134       3.03262883
H       -5.76353334      -1.27526081       3.20107159
H        4.88058197      -0.57718705       1.22717031
92
Properties=species:S:1:pos:R:3 energy=-1323118.740199532 pbc="F F F"
N        0.99347149       1.77204657      -1.16289832
N        1.52843409       1.56021720      -2.45131648
N       -1.66213603       1.18137152       0.47931472
N       -4.20814591       1.15747118      -0.37346431
C        3.32741173       3.14133760      -1.99132439
C        2.66040740       3.43389268      -0.64692668
C        1.16370618       3.14677095      -0.75641436
C        2.97950673       1.73566450      -2.49793592
C        0.44991400       0.71680039      -0.53668835
C       -0.26905010       0.93118555       0.80146269
C       -0.16302784      -0.32642358       1.67290230
C        1.08568875      -0.37356896       2.50789622
C        2.31839244      -0.09107676       1.94250817
C        3.48541182      -0.15335364       2.69428028
C        3.41267416      -0.50806601       4.03943027
C        2.18598915      -0.79251428       4.60421857
C        1.02663958      -0.72508619       3.84969898
C       -2.18635757       2.41332151       0.36010542
C       -3.62166819       2.45902083      -0.18399156
C       -4.49122279       3.35883185       0.71316518
C       -5.84919607       3.60986652       0.06607295
C       -4.65369740       2.75935718       2.10933910
C       -4.24176630       0.53200111      -1.56879327
C       -4.85041634      -0.87069387      -1.52652792
C       -6.24384122      -0.86279875      -0.89636874
C       -3.91104298      -1.85649117      -0.79871493
C       -2.56798221      -2.00623903      -1.53230426
C       -1.94327157      -3.41604807      -1.44412731
C        3.71895146       0.64156630      -1.72785696
C        4.57563227      -1.54934124      -1.89764206
C        3.77328716      -2.24051280      -0.82534354
C        2.45302243      -2.57812250      -1.07145646
C        1.67483260      -3.19329690      -0.09209237
C        2.26865642      -3.47730989       1.13895658
C        3.59022119      -3.15847309       1.38128230
C        4.34687541      -2.53442923       0.40532882
C        0.26348528      -3.49438461      -0.28339236
C       -0.45846570      -3.26527359      -1.37785357
C       -3.30167393      -2.32002584       1.47329605
O        0.43105213      -0.38128208      -1.08422037
O        4.69467062       0.11925427       2.15633362
O       -1.58535600       3.42786901       0.65829862
O       -3.84221587       1.03666087      -2.59758072
O        4.10073118       0.73195577      -0.58425702
O       -3.74712408      -1.37474964       0.53225648
O        3.88524765      -0.43455081      -2.48305356
H        1.25854919       0.61286876      -2.72512899
H       -2.20721577       0.38251974       0.18234836
H       -4.45310278       0.62980000       0.44925810
H        4.41034906       3.23740341      -1.90649307
H        2.97064903       3.85890203      -2.73202444
H        2.81647390       4.47730013      -0.37472684
H        3.09843508       2.80528990       0.12883141
H        0.63563836       3.35034047       0.17158600
H        0.72254643       3.77057531      -1.54089214
H        3.25797724       1.63080814      -3.55228298
H        0.10929526       1.80250230       1.33922725
H       -0.17799642      -1.19481225       1.00536748
H       -1.03712188      -0.37053652       2.32528573
H        2.38437504       0.16466090       0.89666794
H        4.32231150      -0.55574848       4.61673109
H        2.13098573      -1.06944199       5.64691280
H        0.07343313      -0.94955920       4.30623307
H       -3.54805388       2.91082707      -1.18240477
H       -3.95224375       4.30622835       0.80692971
H       -5.72947443       4.07194356      -0.91053818
H       -6.44772872       4.26969729       0.68929653
H       -6.38822051       2.67358388      -0.06233272
H       -5.24681613       1.84714798       2.08239358
H       -5.16260599       3.46796330       2.75832106
H       -3.68184283       2.53751870       2.54427514
H       -4.93633366      -1.20059794      -2.56573816
H       -6.85616930      -0.08692878      -1.34944839
H       -6.72962507      -1.82285262      -1.05968631
H       -6.19069212      -0.68843570       0.17528441
H       -4.41876775      -2.83464522      -0.75842384
H       -1.85955548      -1.28926723      -1.11175095
H       -2.69905325      -1.73316050      -2.57909534
H       -2.23181499      -3.99981138      -2.32130064
H       -2.30324474      -3.94454835      -0.55994387
H        5.52833332      -1.19608397      -1.48881386
H        4.76252161      -2.21851363      -2.74177445
H        2.02128361      -2.33377819      -2.02840625
H        1.68191758      -3.94531885       1.91678687
H        4.03091307      -3.37918352       2.34164846
H        5.37360961      -2.26600674       0.60407704
H       -0.22524638      -3.91821709       0.58855944
H       -0.00685257      -2.84326917      -2.26162672
H       -3.40814874      -1.84958862       2.45060061
H       -3.91670351      -3.22693896       1.44321979
H       -2.25331831      -2.58716241       1.31621639
H        4.58721361       0.33349029       1.21452820
92
Properties=species:S:1:pos:R:3 energy=-1323120.3848474873 pbc="F F F"
N        1.19291461       1.93006097      -1.21707227
N        1.84697830       1.78481769      -2.46111929
N       -1.52582315       1.12313039       0.26185191
N       -4.16402097       0.98325211      -0.21952153
C        3.63356031       3.26767098      -1.70108055
C        2.82618834       3.51115810      -0.42476292
C        1.34463162       3.27567991      -0.71727660
C        3.29813951       1.91067928      -2.33185187
C        0.66159820       0.82837836      -0.66150674
C       -0.13405648       0.95943543       0.64022115
C        0.00548774      -0.30276654       1.49946540
C        1.19634509      -0.28747731       2.41477367
C        2.44871471       0.06213978       1.93690589
C        3.56478983       0.04745028       2.76502912
C        3.41711293      -0.31588869       4.10198904
C        2.17026642      -0.66098231       4.58168499
C        1.06409937      -0.64869749       3.74862117
C       -2.12540477       2.32468827       0.21096195
C       -3.58880479       2.30363537      -0.24447872
C       -4.40987937       3.31160039       0.58423530
C       -5.78494314       3.52290106      -0.03946193
C       -4.53505090       2.85909396       2.03817888
C       -4.56642577       0.33212382      -1.32928333
C       -5.11827646      -1.06977567      -1.07437814
C       -6.13208949      -1.10741691       0.06941928
C       -3.95021304      -2.05278645      -0.81683612
C       -3.08744240      -2.20259920      -2.07720869
C       -2.10035894      -3.38018619      -2.04734293
C        3.92061583       0.74414566      -1.55859618
C        4.38468377      -1.57127124      -1.66205192
C        3.45446434      -2.25507374      -0.69267875
C        2.19444178      -2.65223401      -1.11268677
C        1.32220317      -3.30137097      -0.24221801
C        1.75234147      -3.56777087       1.05729615
C        3.00452418      -3.16730572       1.48070948
C        3.85699718      -2.50755140       0.61214407
C       -0.01745901      -3.70196674      -0.67239887
C       -0.74835513      -3.00428200      -1.53690433
C       -2.83821589      -2.55776297       1.24701716
O        0.71849084      -0.24242904      -1.25578165
O        4.79805361       0.36752014       2.31446122
O       -1.55907025       3.36073735       0.50681425
O       -4.49809694       0.80953581      -2.44312286
O        4.44797644       0.84294039      -0.47474560
O       -3.22128913      -1.57867362       0.31071546
O        3.82005244      -0.38368085      -2.24127529
H        1.59757774       0.85800060      -2.81418343
H       -2.01478880       0.28693091      -0.03298637
H       -4.17334933       0.49519094       0.66068120
H        4.70145368       3.30869830      -1.48514882
H        3.39340891       4.04314697      -2.42998047
H        2.97875164       4.53317333      -0.07942259
H        3.15817485       2.83127524       0.36083354
H        0.71318179       3.44474557       0.15139388
H        1.01259193       3.94899286      -1.51387029
H        3.69488423       1.86058300      -3.35261255
H        0.15769247       1.84349072       1.21101414
H        0.07232756      -1.16244278       0.82588520
H       -0.90056974      -0.40450056       2.09866639
H        2.56676860       0.32822328       0.89834517
H        4.28741562      -0.32388056       4.73870575
H        2.05774020      -0.94420426       5.61803459
H        0.09489932      -0.92478874       4.13814774
H       -3.59971301       2.61998801      -1.29640930
H       -3.85078609       4.25147720       0.56210870
H       -5.69289931       3.88372350      -1.06060776
H       -6.35261771       4.25052178       0.53539349
H       -6.34163688       2.58814289      -0.05832359
H       -5.15018533       1.96478633       2.11891198
H       -5.00410097       3.64158430       2.62964976
H       -3.55328410       2.65727713       2.46063864
H       -5.61654038      -1.37469490      -1.99863659
H       -6.86258528      -0.30996555      -0.04449887
H       -6.66175757      -2.05832079       0.06219997
H       -5.64562541      -1.00191282       1.03670213
H       -4.38920555      -3.03178144      -0.57011364
H       -2.54273456      -1.27239627      -2.24622043
H       -3.77329252      -2.33497898      -2.91521748
H       -1.96627499      -3.72679251      -3.07780088
H       -2.51624028      -4.21516760      -1.47749088
H        5.32332338      -1.30499133      -1.16486963
H        4.58843159      -2.21638220      -2.52110115
H        1.88997086      -2.46070023      -2.12920019
H        1.09014347      -4.07659088       1.74387161
H        3.31888369      -3.36050478       2.49523796
H        4.83398768      -2.19440863       0.94906955
H       -0.40601124      -4.60947577      -0.22189917
H       -0.35116745      -2.08029870      -1.93065459
H       -3.67255809      -3.22769123       1.48349327
H       -1.98936133      -3.14651370       0.89084947
H       -2.54639404      -2.02491464       2.15133790
H        4.76099436       0.56634567       1.36362598
92
Properties=species:S:1:pos:R:3 energy=-1323120.1854449392 pbc="F F F"
N        1.10356338       1.87173253      -1.19312654
N        1.66049728       1.71693785      -2.47998879
N       -1.52758930       1.17327544       0.39374236
N       -4.07009396       1.03376918      -0.40186589
C        3.50772200       3.19187707      -1.86656184
C        2.80499005       3.43623318      -0.53013065
C        1.30268044       3.21645097      -0.70752576
C        3.11809371       1.83870660      -2.47538893
C        0.59285230       0.78220281      -0.59661948
C       -0.13687646       0.95278859       0.73871870
C       -0.00989948      -0.31448718       1.59684451
C        1.22986556      -0.32481941       2.44600872
C        2.46623179      -0.07125229       1.87386192
C        3.62861678      -0.09351753       2.63457852
C        3.54664390      -0.37801925       3.99614689
C        2.31665606      -0.63195972       4.56775048
C        1.16164787      -0.60399616       3.80372806
C       -2.14008822       2.36983236       0.43536536
C       -3.57630854       2.35789582      -0.11204144
C       -4.50636028       3.12436858       0.84567998
C       -5.87545008       3.33800053       0.20834095
C       -4.63345228       2.40640786       2.18863253
C       -4.13524811       0.53361702      -1.65213242
C       -4.77575736      -0.85303258      -1.75277725
C       -6.29126548      -0.71463169      -1.59237296
C       -4.19099186      -1.87730114      -0.76209173
C       -2.65415143      -1.94679712      -0.86570271
C       -2.06974535      -3.34396602      -1.12094967
C        3.80107180       0.66416729      -1.77030625
C        4.44492495      -1.59244781      -2.04004167
C        3.69860874      -2.25878298      -0.91312756
C        2.36877156      -2.60784156      -1.08283340
C        1.64636854      -3.20247285      -0.04895580
C        2.30733498      -3.46301903       1.15293621
C        3.63728964      -3.13126192       1.31949779
C        4.33641903      -2.52178568       0.29281064
C        0.22444976      -3.50435165      -0.14904444
C       -0.58190639      -3.19576459      -1.16205901
C       -4.47838823      -2.54871069       1.50375242
O        0.58945194      -0.29622050      -1.17983435
O        4.84254425       0.15004758       2.09341889
O       -1.61948359       3.37597180       0.87409058
O       -3.74051979       1.13446320      -2.63115266
O        4.29448173       0.70927821      -0.66772441
O       -4.60866975      -1.52270781       0.55282107
O        3.79080370      -0.41421984      -2.53879389
H        1.37288633       0.79464459      -2.81400178
H       -1.98045809       0.42369630      -0.10802197
H       -4.38143835       0.45294858       0.36367383
H        4.58954166       3.22910909      -1.73570813
H        3.21429687       3.97072311      -2.57222888
H        2.99495597       4.45462118      -0.19267228
H        3.18869228       2.74668423       0.22276120
H        0.74695273       3.39033171       0.21071149
H        0.91525592       3.89374637      -1.47539833
H        3.42227131       1.79617886      -3.52746766
H        0.20466776       1.82309710       1.30086743
H        0.00884579      -1.17656953       0.92224720
H       -0.89063566      -0.38758683       2.23884751
H        2.53580689       0.12710804       0.81575041
H        4.45282716      -0.39538465       4.58050819
H        2.25524917      -0.85291844       5.62331986
H        0.20552298      -0.80265660       4.26570747
H       -3.53482862       2.88671017      -1.07439975
H       -4.03092656       4.09437459       1.01907069
H       -5.78215681       3.88053767      -0.72915407
H       -6.51633947       3.90947340       0.87522878
H       -6.35512614       2.38304272       0.00419303
H       -3.65036493       2.22678299       2.61764224
H       -5.15332551       1.45574113       2.08415797
H       -5.20007080       3.02179821       2.88331611
H       -4.56023561      -1.21542790      -2.76285615
H       -6.67204894       0.02579230      -2.29153247
H       -6.77907944      -1.66611759      -1.79365710
H       -6.53993994      -0.40705285      -0.58008962
H       -4.62313306      -2.86248975      -1.00371894
H       -2.23512008      -1.58273308       0.07515734
H       -2.30905182      -1.28590119      -1.66341574
H       -2.44439933      -3.72795165      -2.07241557
H       -2.36776240      -4.03102767      -0.32581670
H        5.45337276      -1.31703022      -1.71324865
H        4.50500580      -2.24865556      -2.91222128
H        1.88871604      -2.39112624      -2.02288158
H        1.76526005      -3.91875196       1.96937178
H        4.12971983      -3.33068871       2.25913998
H        5.37052299      -2.24402608       0.43205400
H       -0.19586305      -3.98602986       0.72791100
H       -0.20039639      -2.69311568      -2.03671349
H       -4.90541099      -2.16615742       2.42943960
H       -5.02838231      -3.44461416       1.19311360
H       -3.43074269      -2.81723331       1.67524578
H        4.74629405       0.32820770       1.14299385
92
Properties=species:S:1:pos:R:3 energy=-1323121.2728552755 pbc="F F F"
N        1.80363680       2.13768875      -0.50903105
N        2.61874267       2.39030053      -1.63080524
N       -1.49316844       1.06390015      -0.08763485
N       -4.28646505       0.62837560      -0.44821610
C        4.43110052       2.74551926      -0.03902772
C        3.36753464       3.75533669       0.38138055
C        2.04435762       3.02827417       0.61175551
C        4.03248005       2.11628321      -1.38216443
C        0.84023188       1.20950493      -0.62649050
C       -0.17209038       1.07671583       0.50670445
C        0.09168272      -0.21793809       1.30061921
C        1.26239440      -0.04597831       2.22503774
C        2.55177259      -0.32577106       1.79563078
C        3.63828938      -0.13024995       2.64372855
C        3.42167006       0.34172697       3.93762457
C        2.13884192       0.62172399       4.36249951
C        1.06206526       0.43731337       3.51223061
C       -2.37904671       2.04820398       0.17158304
C       -3.67726558       1.92338013      -0.64123990
C       -4.66300676       3.06297608      -0.33102393
C       -5.76964518       3.09618461      -1.38164025
C       -5.25459067       2.94864078       1.07305864
C       -4.18520664      -0.37054233      -1.33918589
C       -5.01330747      -1.60541354      -0.98950268
C       -6.50573127      -1.27018423      -1.02126278
C       -4.59400311      -2.20556265       0.36614330
C       -3.07297144      -2.40428693       0.46265795
C       -2.47694644      -3.19151977      -0.70998569
C        4.36922442       0.62301088      -1.43297642
C        4.35691148      -1.29338303      -2.79558661
C        3.53794285      -2.15162226      -1.86798406
C        2.15573326      -2.12500733      -1.95912547
C        1.35905567      -2.86859957      -1.08734675
C        1.99056312      -3.64874043      -0.11705542
C        3.36872093      -3.68258201      -0.02913183
C        4.14756578      -2.93737485      -0.89832475
C       -0.08682810      -2.77403112      -1.23069894
C       -1.01121918      -3.39538890      -0.50157329
C       -5.10477116      -1.89390872       2.68064002
O        0.74346249       0.52318168      -1.63661817
O        4.91083986      -0.38015220       2.26392393
O       -2.17193668       2.93012355       0.98087516
O       -3.50855673      -0.30032889      -2.34935333
O        4.83459017      -0.00888824      -0.51465442
O       -5.06398974      -1.33786026       1.39153480
O        4.08870265       0.10880202      -2.61896766
H        2.25475373       1.80913177      -2.38890419
H       -1.62427813       0.45696077      -0.88716847
H       -4.74488223       0.44136263       0.43149914
H        4.50846025       1.96402370       0.71915314
H        5.40477967       3.22552813      -0.12467419
H        3.24716440       4.50391791      -0.40218805
H        3.66286891       4.25611897       1.30227337
H        2.10834775       2.43481208       1.52849617
H        1.22505229       3.74997400       0.70845686
H        4.56481337       2.58829073      -2.21691189
H       -0.15236140       1.93698236       1.17977600
H        0.26620714      -1.03320465       0.59672867
H       -0.80367852      -0.44175392       1.88406823
H        2.71662873      -0.70614181       0.79705141
H        4.27209374       0.48005381       4.58596615
H        1.97640493       0.99028331       5.36440254
H        0.06141523       0.66576229       3.84748273
H       -3.39406297       1.96878055      -1.70218395
H       -4.08832058       3.99283558      -0.38094643
H       -6.32462336       2.16038240      -1.37647795
H       -5.35509194       3.24231654      -2.37640740
H       -6.46209626       3.90844300      -1.17463733
H       -4.45997588       2.87072784       1.80928901
H       -5.91235086       2.08582786       1.15787834
H       -5.83971378       3.83755341       1.29632846
H       -4.81401800      -2.35008854      -1.76423474
H       -7.09346053      -2.17580345      -0.88517914
H       -6.76448982      -0.57246307      -0.23003817
H       -6.76584228      -0.83002547      -1.98113282
H       -5.09601979      -3.18242187       0.47675428
H       -2.84285547      -2.93066640       1.39262596
H       -2.60115861      -1.42075015       0.50910315
H       -2.62894200      -2.64278552      -1.63862738
H       -2.98047886      -4.15993771      -0.78392851
H        5.42569033      -1.46509262      -2.63007502
H        4.10495090      -1.48267721      -3.84104197
H        1.68215404      -1.49599469      -2.69768969
H        1.40251061      -4.22784996       0.57780392
H        3.84395736      -4.28527556       0.73060570
H        5.22393857      -2.95451253      -0.81431517
H       -0.41364229      -2.10545330      -2.01735218