34
Properties=species:S:1:pos:R:3 energy=-561635.3781192263 pbc="F F F"
O       -1.88975143       2.21406954       0.42458661
C       -1.02721476       2.22510981      -0.57364264
O       -0.10936997       2.99591099      -0.62974882
H       -2.52717267       1.44555778       0.36354995
C       -1.29899635       1.18596450      -1.68020029
H       -0.57839312       1.33279892      -2.48350855
H       -2.31436975       1.36054786      -2.05825072
N       -1.19848049      -0.17845794      -1.20364858
H       -0.38281159      -0.72928521      -1.43935208
C       -2.05085041      -0.72595624      -0.33150477
O       -3.01744896      -0.13063786       0.13577122
C       -1.69200531      -2.14708375       0.07076915
H       -2.62696419      -2.66661299       0.34061904
N       -0.96505563      -2.79433215      -1.01075436
H       -0.65266831      -3.71400872      -0.71881036
H       -1.56604593      -2.91555097      -1.81941232
C       -0.80561338      -2.05056796       1.34107056
H       -0.25858554      -2.99008192       1.44762979
H       -1.45982514      -1.92884099       2.20523548
C        0.14083053      -0.89469484       1.29198979
C       -0.01439068       0.29268766       1.95014042
H       -0.78058394       0.58283380       2.64348977
N        0.99073939       1.15445221       1.61862897
H        1.04380167       2.11973575       1.89599081
C        1.80771279       0.55185599       0.70967092
C        2.93751500       1.03058613       0.05859916
H        3.29247274       2.03452818       0.23296201
C        3.57410615       0.18323357      -0.82106964
H        4.45358122       0.52302981      -1.34759244
C        3.10456908      -1.11435128      -1.04760202
H        3.63640267      -1.74825771      -1.74239097
C        1.98522752      -1.59531429      -0.40752673
H        1.62666417      -2.59555040      -0.59410836
C        1.31334760      -0.75721025       0.48448788
34
Properties=species:S:1:pos:R:3 energy=-561636.5908877421 pbc="F F F"
O       -2.23814356       2.04160199      -0.68512585
C       -1.29660970       2.29837478       0.20482620
O       -0.44100729       3.12086294       0.02654655
H       -2.78691721       1.25148209      -0.42985660
C       -1.37454985       1.44885106       1.48665124
H       -2.39020121       1.51961985       1.89237132
H       -0.65750864       1.82606976       2.21453908
N       -1.07877015       0.05216893       1.21328303
H       -0.12782010      -0.25577583       1.35837873
C       -1.91005096      -0.73377723       0.50649993
O       -3.01168910      -0.34970285       0.12492501
C       -1.38262564      -2.13041276       0.19124839
H       -0.71851868      -2.45963959       0.99669026
N       -2.43424607      -3.11105587       0.02937437
H       -2.91389006      -3.26944559       0.90928175
H       -3.12249502      -2.75610919      -0.62870029
C       -0.57930732      -2.02618927      -1.13129791
H       -1.28955700      -1.89055726      -1.94871904
H       -0.06246107      -2.97505798      -1.28059593
C        0.37983623      -0.88378522      -1.11279028
C        0.25936792       0.29676512      -1.79029785
H       -0.48532246       0.59035100      -2.50518732
N        1.27374343       1.14578061      -1.45146042
H        1.34165721       2.10719477      -1.73988294
C        2.06118281       0.54407174      -0.51683188
C        3.18660998       1.00832437       0.15319539
H        3.56954846       2.00061950      -0.02977043
C        3.78763199       0.16006967       1.05723620
H        4.66267496       0.48954586       1.59712876
C        3.29161378      -1.12697809       1.28925196
H        3.79920012      -1.76258208       1.99982188
C        2.17751083      -1.59515648       0.63063026
H        1.80771099      -2.59464442       0.80824479
C        1.53896930      -0.75379379      -0.28364010
34
Properties=species:S:1:pos:R:3 energy=-561636.7730386556 pbc="F F F"
O       -2.22277486       2.30170314       0.59539169
C       -1.70105070       2.44329044      -0.60689625
O       -0.91988764       3.31088447      -0.88274306
H       -2.72484042       1.43724228       0.68065910
C       -2.18335499       1.40792347      -1.64553776
H       -1.80287353       1.69060226      -2.62586697
H       -3.28088030       1.42504961      -1.65653602
N       -1.71757057       0.07274666      -1.32501664
H       -1.10422705      -0.40954362      -1.96682673
C       -2.15131493      -0.63458309      -0.27793899
O       -2.95391904      -0.19643880       0.54191938
C       -1.52689669      -2.01773860      -0.13855677
H       -2.34809152      -2.73572006      -0.04328209
N       -0.74370576      -2.34394110      -1.32058392
H       -0.65526104      -3.34796835      -1.42146706
H        0.19662350      -1.96937784      -1.22066629
C       -0.70550343      -2.00695810       1.18008042
H       -0.21793269      -2.97656042       1.30197169
H       -1.39374768      -1.85010146       2.01086967
C        0.30401472      -0.90562128       1.14137194
C        0.10935051       0.38062407       1.55999632
H       -0.73458144       0.80230244       2.07014541
N        1.19729636       1.14685120       1.25782552
H        1.26686311       2.13754740       1.41745839
C        2.12613012       0.37287499       0.62981101
C        3.38301720       0.69378792       0.13219318
H        3.76419416       1.70169533       0.19863233
C        4.12176234      -0.31710358      -0.44220944
H        5.10265996      -0.10254771      -0.83909994
C        3.63149302      -1.62456562      -0.51245040
H        4.24869037      -2.39188597      -0.95637052
C        2.38676269      -1.95015839      -0.02472579
H        2.03159507      -2.97067401      -0.06948453
C        1.60376798      -0.94312183       0.54597159
34
Properties=species:S:1:pos:R:3 energy=-561636.6778399902 pbc="F F F"
O       -2.20801155       2.29848587       0.59239650
C       -1.65759326       2.43023830      -0.59817144
O       -0.85454165       3.28331921      -0.85636974
H       -2.72052635       1.43935040       0.66885636
C       -2.13503707       1.40301220      -1.64704223
H       -1.73433275       1.68253300      -2.62021130
H       -3.23189020       1.43319743      -1.67675559
N       -1.69030908       0.06205670      -1.32087102
H       -1.07331103      -0.42621517      -1.95433658
C       -2.14626700      -0.64011299      -0.27958079
O       -2.95664677      -0.19344735       0.52801557
C       -1.53492054      -2.02785760      -0.12827101
H       -2.36240949      -2.73754527      -0.02638153
N       -0.75448087      -2.37172835      -1.30700951
H        0.18986443      -2.00687200      -1.20976704
H       -0.67742352      -3.37740475      -1.40039992
C       -0.71293356      -2.01179814       1.19045735
H       -0.22247312      -2.97977278       1.31414340
H       -1.40111806      -1.85529268       2.02132690
C        0.29201704      -0.90631925       1.14918967
C        0.09218714       0.37792349       1.57175999
H       -0.75053064       0.79255158       2.08966105
N        1.17217880       1.15223665       1.26197456
H        1.23415970       2.14402001       1.41803589
C        2.10030281       0.38593007       0.62375869
C        3.34987185       0.71704358       0.11458607
H        3.72365391       1.72783248       0.17859466
C        4.09096651      -0.28747962      -0.46783774
H        5.06680558      -0.06518916      -0.87289705
C        3.61073190      -1.59887680      -0.53354356
H        4.23055717      -2.36149249      -0.98191603
C        2.37312683      -1.93452192      -0.03464330
H        2.02688981      -2.95836847      -0.07495914
C        1.58693046      -0.93386559       0.54292277
34
Properties=species:S:1:pos:R:3 energy=-561635.716227375 pbc="F F F"
O       -2.15599350       2.05139470      -0.69926846
C       -1.25845959       2.29027345       0.23872868
O       -0.39522426       3.11517355       0.11701898
H       -2.71303306       1.25294772      -0.48449331
C       -1.40165634       1.42204238       1.50330916
H       -2.43536279       1.49551628       1.85999482
H       -0.71942601       1.78872969       2.26890003
N       -1.09984852       0.02731173       1.23161156
H       -0.17465100      -0.30217419       1.46343135
C       -1.90135570      -0.75060840       0.48533365
O       -2.96137649      -0.34538937       0.02123401
C       -1.37093034      -2.14357106       0.20147520
H       -0.68164498      -2.44846745       0.99727748
N       -2.47560303      -3.07512909       0.17334783
H       -2.22037600      -3.92829333      -0.31067910
H       -3.26244835      -2.65080762      -0.30877514
C       -0.58222973      -2.04094573      -1.14102172
H       -1.30144054      -1.90655115      -1.95257877
H       -0.05033822      -2.98309687      -1.29648547
C        0.36713939      -0.89079874      -1.12819398
C        0.23588931       0.28685516      -1.80864417
H       -0.50995913       0.57133099      -2.52594807
N        1.24043378       1.14660570      -1.46799213
H        1.29855492       2.10899487      -1.75503789
C        2.03043476       0.55499130      -0.52923505
C        3.14843372       1.03306835       0.14326354
H        3.51984383       2.02965218      -0.03983032
C        3.75607370       0.19356607       1.05093765
H        4.62554112       0.53379011       1.59326379
C        3.27354419      -1.09831577       1.28378326
H        3.78504195      -1.72700452       1.99776592
C        2.16661790      -1.57975148       0.62258045
H        1.80830800      -2.58310141       0.80324874
C        1.52155114      -0.74772367      -0.29534454
34
Properties=species:S:1:pos:R:3 energy=-561634.2875211822 pbc="F F F"
O       -2.33882288       2.24015149       0.50844485
C       -1.40951135       2.35574539      -0.42033350
O       -0.52075610       3.16064132      -0.35826052
H       -2.90536016       1.42958405       0.36914026
C       -1.54544099       1.36718158      -1.59451778
H       -0.84338368       1.64345754      -2.38054711
H       -2.57141519       1.41958896      -1.97649795
N       -1.27486961       0.00239690      -1.17982676
H       -0.33751145      -0.34450488      -1.32261012
C       -2.10138871      -0.68321079      -0.36679582
O       -3.15824915      -0.20837955       0.03494037
C       -1.63323946      -2.08255820       0.01839866
H       -2.52935220      -2.65915657       0.27567115
N       -0.92846270      -2.81435076      -1.01284619
H       -1.46762102      -2.85712899      -1.86922573
H       -0.02116146      -2.41004423      -1.21197948
C       -0.74788863      -1.95952965       1.28722623
H       -0.24092737      -2.91612387       1.41808799
H       -1.39804640      -1.78236475       2.14436680
C        0.23954720      -0.84310882       1.18412183
C        0.06173776       0.43003507       1.65165434
H       -0.74969288       0.82588053       2.23207732
N        1.11248817       1.22196824       1.28953266
H        1.16247518       2.21641962       1.43564616
C        1.99284453       0.48194871       0.55924027
C        3.19316813       0.84163792      -0.04187373
H        3.55927526       1.85519739       0.01811272
C        3.89283443      -0.13892523      -0.70996118
H        4.82850863       0.10584565      -1.18983215
C        3.42280269      -1.45500651      -0.76849840
H        4.01224927      -2.19821334      -1.28499669
C        2.23451623      -1.82018315      -0.17801422
H        1.89481610      -2.84547714      -0.21028408
C        1.48763332      -0.84183601       0.48413293
34
Properties=species:S:1:pos:R:3 energy=-561634.7599083585 pbc="F F F"
O       -2.56448226       2.71966607      -0.30893479
C       -1.71887549       2.55836825      -1.30545993
O       -1.76837094       3.19645468      -2.31991330
H       -2.40066286       2.07235942       0.43675300
C       -0.61497031       1.50580539      -1.06554582
H       -0.00834317       1.85188723      -0.21730339
H        0.01336926       1.45583467      -1.95361070
N       -1.12585314       0.18040695      -0.77778717
H       -0.89603865      -0.58678050      -1.39550522
C       -1.72265062      -0.16320633       0.36704910
O       -2.07629049       0.64332444       1.22129369
C       -1.91760480      -1.66284909       0.53502233
H       -2.82317685      -1.81438996       1.14602017
N       -1.98278342      -2.29641680      -0.77480550
H       -2.85493872      -2.06234832      -1.23762393
H       -1.94543170      -3.30490675      -0.67683807
C       -0.70891969      -2.21409436       1.32673535
H       -0.83953360      -3.29225593       1.44543224
H       -0.71131446      -1.75348951       2.31528479
C        0.58128771      -1.92625457       0.63585142
C        1.20127604      -2.68539454      -0.31349385
H        0.91649428      -3.64072698      -0.71054190
N        2.33400263      -2.05735130      -0.75490651
H        2.97611340      -2.42372081      -1.43634235
C        2.47141493      -0.87150770      -0.09267003
C        3.44615384       0.11315518      -0.19475884
H        4.27487370       0.00857788      -0.87941435
C        3.31679061       1.22378260       0.61047059
H        4.05510465       2.00965389       0.55702529
C        2.24768098       1.35429118       1.50197622
H        2.18699312       2.23935416       2.11797275
C        1.27898727       0.38151326       1.60950789
H        0.45653836       0.49418888       2.29987480
C        1.37895064      -0.75046704       0.79927689
34
Properties=species:S:1:pos:R:3 energy=-561632.3837702452 pbc="F F F"
O       -1.13371869       2.46134487       0.22578707
C       -0.68542376       2.16842842      -0.97568027
O        0.22739856       2.74207707      -1.50014239
H       -1.83329272       1.81698658       0.53637757
C       -1.47455115       1.06394604      -1.71647000
H       -1.04732678       0.94798186      -2.71158552
H       -2.51007113       1.41935701      -1.80554380
N       -1.46841647      -0.22265980      -1.05238055
H       -1.01069123      -1.00965970      -1.49171462
C       -2.08297632      -0.48085359       0.10561700
O       -2.63576796       0.37511404       0.78877014
C       -2.01746145      -1.94396022       0.51712051
H       -2.88950838      -2.14526712       1.16186477
N       -1.96831248      -2.77908199      -0.67617601
H       -2.85770794      -2.75245288      -1.16402449
H       -1.78567468      -3.74276308      -0.41874935
C       -0.73715724      -2.15884763       1.35681391
H       -0.66435259      -3.22238814       1.59812377
H       -0.83930006      -1.60013312       2.28744040
C        0.48533987      -1.70409044       0.63196027
C        1.16851772      -2.36631274      -0.34715598
H        0.99895234      -3.34674382      -0.74923545
N        2.19178155      -1.58709083      -0.81509534
H        2.85488620      -1.85591119      -1.52125871
C        2.19224028      -0.39869543      -0.13954072
C        3.02266272       0.70812099      -0.25826764
H        3.82900785       0.72532854      -0.97646655
C        2.77329687       1.78139985       0.56790719
H        3.39222674       2.66243271       0.49669493
C        1.72843724       1.75809761       1.49526992
H        1.56335133       2.62309785       2.11885157
C        0.90068900       0.66615294       1.61552062
H        0.08878307       0.66439065       2.32756577
C        1.12409192      -0.43327807       0.78626469
34
Properties=species:S:1:pos:R:3 energy=-561630.1486746391 pbc="F F F"
O       -0.81756628       2.17493143       0.05765061
C       -0.43598781       1.90590525      -1.17579996
O        0.47603415       2.46419737      -1.71629159
H       -1.57387364       1.58952249       0.35195959
C       -1.29899122       0.85996267      -1.91704966
H       -0.88987957       0.72929179      -2.91765256
H       -2.31187997       1.27862183      -1.98983284
N       -1.36463848      -0.43102315      -1.26274273
H       -0.94448728      -1.22890249      -1.71390857
C       -1.98164134      -0.64688412      -0.09844502
O       -2.51057083       0.24430634       0.55952288
C       -1.97008388      -2.10008453       0.35546843
H       -2.71499651      -2.18145958       1.16337067
N       -2.24786573      -2.95684173      -0.79134002
H       -3.18544436      -2.78907993      -1.14267980
H       -2.19513250      -3.93197593      -0.51600263
C       -0.56194938      -2.43849924       0.91152606
H       -0.02104660      -2.98208158       0.13532480
H       -0.66490018      -3.09167174       1.77987036
C        0.21214146      -1.21027176       1.26993240
C        0.05318948      -0.41528728       2.36878812
H       -0.61623338      -0.53557387       3.19881528
N        0.90630284       0.64931422       2.30558112
H        0.93897654       1.40912118       2.96283143
C        1.62623341       0.57729766       1.14880256
C        2.59267600       1.42957733       0.63080628
H        2.88329052       2.32548377       1.15769067
C        3.14922575       1.09931634      -0.58415680
H        3.89365098       1.74529341      -1.02296367
C        2.76353691      -0.05604122      -1.26935749
H        3.22473977      -0.27733917      -2.22063301
C        1.80881719      -0.90573795      -0.76118422
H        1.52349117      -1.79916411      -1.29974785
C        1.22072061      -0.59341620       0.46551581
34
Properties=species:S:1:pos:R:3 energy=-561632.7555070546 pbc="F F F"
O       -0.81681304       2.17891078       0.70948191
C       -1.72304974       2.34181142      -0.23325118
O       -1.65853317       3.21225232      -1.05717986
H       -0.94998991       1.32936844       1.21921292
C       -2.89844796       1.34030511      -0.19334048
H       -3.64220044       1.64358958      -0.92887633
H       -3.33733721       1.37880394       0.81191370
N       -2.46858888      -0.01407741      -0.48017750
H       -2.78725089      -0.47060559      -1.32086640
C       -1.70390175      -0.73061250       0.35272989
O       -1.28852495      -0.29499711       1.41973477
C       -1.36695947      -2.11923052      -0.16899723
H       -0.93121743      -2.68091373       0.67169997
N       -2.56685759      -2.72285378      -0.73646619
H       -3.24777254      -2.91331122      -0.00809987
H       -2.33454771      -3.60744846      -1.17590933
C       -0.30802889      -1.95300608      -1.28533851
H       -0.83343118      -1.75047056      -2.22100418
H        0.24599368      -2.88758403      -1.39536897
C        0.62180257      -0.82332508      -0.98248941
C        0.58911413       0.42896388      -1.52770074
H       -0.04584879       0.81601948      -2.30278581
N        1.54074083       1.22000608      -0.95164164
H        1.65215740       2.20428344      -1.12498758
C        2.19533944       0.50031513       0.00384873
C        3.22350744       0.86516012       0.86378437
H        3.62677387       1.86676851       0.85403421
C        3.70214692      -0.09390244       1.72891647
H        4.49879991       0.15586067       2.41407747
C        3.17760716      -1.38971726       1.74038289
H        3.58420830      -2.11127394       2.43403485
C        2.15941552      -1.75802419       0.89169137
H        1.76215694      -2.76235620       0.90782555
C        1.65063906      -0.80677341       0.00810252
34
Properties=species:S:1:pos:R:3 energy=-561631.4199723469 pbc="F F F"
O       -0.50052988       2.16082967      -0.25759708
C       -0.48142120       1.85855698      -1.53834143
O        0.27475327       2.35760767      -2.32320639
H       -1.18333318       1.62990793       0.24456690
C       -1.57151735       0.86292048      -2.00058949
H       -1.43438944       0.68298592      -3.06592614
H       -2.53687416       1.36280150      -1.84058176
N       -1.57007046      -0.40796877      -1.30402242
H       -1.41698503      -1.25419669      -1.83205597
C       -1.91823017      -0.55905402      -0.02329202
O       -2.15973640       0.38180675       0.72615080
C       -1.97088144      -2.00874761       0.43951501
H       -2.54255041      -2.01877488       1.38153961
N       -2.54948279      -2.82861515      -0.61821272
H       -3.53041050      -2.60251666      -0.74905558
H       -2.49287110      -3.80982240      -0.36655844
C       -0.52636480      -2.48606076       0.71852985
H       -0.10109188      -2.83777170      -0.22274069
H       -0.55718168      -3.32466806       1.41756396
C        0.31524104      -1.37540661       1.25661836
C        0.30098723      -0.85838964       2.51971563
H       -0.25811117      -1.18053181       3.37737210
N        1.14980359       0.20911174       2.59910690
H        1.28923348       0.78283042       3.41269051
C        1.72122749       0.41727835       1.37727621
C        2.62652409       1.38224444       0.95493292
H        2.99006772       2.13851061       1.63455047
C        3.03145690       1.34479588      -0.36046181
H        3.72441092       2.08608864      -0.72742041
C        2.55624587       0.36772946      -1.23918221
H        2.89520876       0.37869234      -2.26391239
C        1.65842656      -0.58936662      -0.82776856
H        1.29972430      -1.33993106      -1.51806497
C        1.22282133      -0.57250024       0.49808516
34
Properties=species:S:1:pos:R:3 energy=-561632.408539395 pbc="F F F"
O       -0.66207562       2.09934449       0.76814740
C       -1.50770560       2.29106960      -0.22350873
O       -1.34153004       3.12631802      -1.07001126
H       -0.86529289       1.26775678       1.28323968
C       -2.75192847       1.37554063      -0.21166831
H       -3.44798035       1.71867386      -0.97576076
H       -3.22063450       1.45632161       0.77724026
N       -2.40604476      -0.00829641      -0.46920629
H       -2.70901534      -0.44649315      -1.32481837
C       -1.70127093      -0.75654428       0.38849872
O       -1.30252775      -0.33800668       1.46838340
C       -1.41447723      -2.16220811      -0.11782642
H       -1.01016405      -2.73193789       0.73314141
N       -2.63400344      -2.72360236      -0.68714190
H       -3.33265131      -2.86263904       0.03602291
H       -2.43777798      -3.62956780      -1.09988378
C       -0.34253504      -2.05297606      -1.23060263
H       -0.86007210      -1.92058923      -2.18313788
H        0.22594987      -2.98428036      -1.27373864
C        0.56993829      -0.89179160      -0.99979292
C        0.54815964       0.30569490      -1.65778908
H       -0.06465707       0.61560980      -2.48365217
N        1.47989063       1.15242075      -1.13056172
H        1.58306016       2.12098414      -1.38128475
C        2.10611217       0.52864300      -0.09204494
C        3.10256794       0.98009548       0.76397592
H        3.49950016       1.98022115       0.67524445
C        3.55663067       0.10894989       1.72937936
H        4.32808312       0.42765896       2.41478682
C        3.03957713      -1.18505956       1.84275088
H        3.42595397      -1.83584147       2.61363277
C        2.05278609      -1.63889919       0.99855572
H        1.65924073      -2.64002445       1.09491520
C        1.56877484      -0.77713204       0.01492703
34
Properties=species:S:1:pos:R:3 energy=-561631.5811922946 pbc="F F F"
O       -0.47525056       2.16215650      -0.30240616
C       -0.49892896       1.85477823      -1.58166166
O        0.23718782       2.34292949      -2.39211734
H       -1.14461676       1.63763046       0.22379054
C       -1.61299784       0.86869481      -2.00613884
H       -1.51202900       0.68527209      -3.07495622
H       -2.56777933       1.37846514      -1.81645122
N       -1.60131378      -0.40075021      -1.30707156
H       -1.48026000      -1.25019787      -1.83861026
C       -1.91140878      -0.54619122      -0.01580178
O       -2.11617988       0.39812028       0.74002276
C       -1.96853074      -1.99489882       0.44931315
H       -2.51802154      -1.99889607       1.40450744
N       -2.57915933      -2.80979518      -0.59415875
H       -2.52116116      -3.79176373      -0.34585107
H       -3.56196463      -2.57825226      -0.69878916
C       -0.52339403      -2.48649089       0.69645763
H       -0.11216010      -2.81637606      -0.25886895
H       -0.55050208      -3.34249496       1.37434502
C        0.32999966      -1.39416999       1.25261502
C        0.33861238      -0.91556062       2.53077326
H       -0.20566013      -1.26285684       3.38813603
N        1.19097771       0.14780893       2.62761279
H        1.34704086       0.69525198       3.45611102
C        1.74140281       0.39184455       1.40271755
C        2.64156345       1.36749601       0.99406631
H        3.01890705       2.10202618       1.68985077
C        3.02378915       1.36877336      -0.32871795
H        3.71232130       2.11941283      -0.68500667
C        2.53156550       0.41936402      -1.22805011
H        2.85229988       0.46088645      -2.25780780
C        1.63875292      -0.54806081      -0.83009044
H        1.26623861      -1.27661455      -1.53642560
C        1.22571660      -0.57009705       0.50290659
34
Properties=species:S:1:pos:R:3 energy=-561633.1112061837 pbc="F F F"
O       -0.97199874       2.24879177       0.65606573
C       -1.92118924       2.37858672      -0.24922649
O       -1.94100833       3.27049943      -1.05167350
H       -1.04647812       1.38874662       1.16082224
C       -3.03060141       1.30522399      -0.19397330
H       -3.80721512       1.56804421      -0.91088476
H       -3.44935355       1.31074757       0.82064215
N       -2.52633249      -0.01893873      -0.50043654
H       -2.84579301      -0.49406044      -1.33093481
C       -1.71545200      -0.70147530       0.31705454
O       -1.29756448      -0.24762308       1.37563454
C       -1.32613745      -2.07216794      -0.21469904
H       -0.87043370      -2.62522064       0.62118786
N       -2.50031526      -2.71459999      -0.79312805
H       -3.17039550      -2.95032574      -0.06801073
H       -2.23144774      -3.57830963      -1.25268464
C       -0.26949601      -1.85526407      -1.32324696
H       -0.79403908      -1.59231384      -2.24421675
H        0.27148881      -2.78957799      -1.48764508
C        0.67562712      -0.75926881      -0.95395429
C        0.63793006       0.53386047      -1.39230752
H       -0.01260435       0.98674123      -2.11729705
N        1.60747794       1.26994192      -0.77483762
H        1.72688155       2.26330966      -0.87557365
C        2.28275354       0.46968713       0.09853878
C        3.33751730       0.75516777       0.95637536
H        3.74918179       1.75156851       1.01878292
C        3.83320609      -0.27591497       1.72367137
H        4.65131028      -0.08913004       2.40360665
C        3.29895729      -1.56518237       1.64158901
H        3.71937883      -2.34479047       2.26015772
C        2.25424460      -1.85507284       0.79457031
H        1.85018833      -2.85532529       0.73764564
C        1.72848571      -0.83031930       0.00836434
34
Properties=species:S:1:pos:R:3 energy=-561630.1944425873 pbc="F F F"
O       -0.82796433       1.63081034      -1.45621473
C       -0.54281155       2.19294562      -0.29378991
O        0.34739491       2.98133640      -0.15054049
H       -1.59454739       0.99841193      -1.38291078
C       -1.47841690       1.79208071       0.86516671
H       -2.49513940       2.09563453       0.58640943
H       -1.17095310       2.32822940       1.76190000
N       -1.48694335       0.36733468       1.14738930
H       -0.91092568       0.04623935       1.90852999
C       -2.03445889      -0.53189046       0.31547076
O       -2.57466214      -0.20537268      -0.73780540
C       -1.97184757      -1.99626964       0.75968768
H       -2.42832923      -2.08144295       1.75350711
N       -2.71162361      -2.86123759      -0.13504351
H       -2.34916070      -2.75402810      -1.07768463
H       -3.68733534      -2.58293584      -0.16505434
C       -0.49165541      -2.45551608       0.81814650
H       -0.47341446      -3.50232169       0.51090842
H       -0.12462502      -2.39969150       1.84312655
C        0.38847235      -1.62684396      -0.06388233
C        0.42583453      -1.60918601      -1.42938690
H       -0.11261510      -2.21765312      -2.13092332
N        1.30903600      -0.66249922      -1.86497655
H        1.47064893      -0.41439584      -2.82555256
C        1.85333511      -0.02967060      -0.78658501
C        2.77260099       1.00904580      -0.71711857
H        3.17443356       1.45578219      -1.61325560
C        3.13424900       1.45827690       0.53256086
H        3.83573740       2.27279819       0.62409522
C        2.60567054       0.88389161       1.69191977
H        2.91783902       1.26434260       2.65348784
C        1.69790060      -0.14762210       1.63050891
H        1.30995939      -0.59162182       2.53847479
C        1.30211220      -0.61807492       0.37644849
34
Properties=species:S:1:pos:R:3 energy=-561635.667161145 pbc="F F F"
O       -2.65706628       2.80023192      -0.44763642
C       -2.01367565       2.58693478      -1.57648237
O       -2.25615022       3.17197058      -2.59476506
H       -2.34773531       2.19224909       0.28465722
C       -0.87575451       1.54492328      -1.49352952
H       -0.12939607       1.92971790      -0.78561940
H       -0.41991127       1.45212617      -2.47842879
N       -1.30388328       0.23407410      -1.04814131
H       -1.32109858      -0.53603545      -1.70171027
C       -1.66929830      -0.04512898       0.20519749
O       -1.83955080       0.81482940       1.06511671
C       -1.84549902      -1.52597187       0.51583487
H       -2.84744062      -1.63966754       0.94219641
N       -1.75028742      -2.32264750      -0.69678240
H       -2.24678230      -3.19867456      -0.58641457
H       -0.77312009      -2.54833957      -0.87332067
C       -0.80088916      -1.90907298       1.60187668
H       -1.02185103      -2.91728644       1.95990481
H       -0.90171469      -1.20970434       2.43173056
C        0.58037794      -1.85932276       1.04070596
C        1.25490779      -2.89260782       0.45234387
H        0.97228817      -3.92556151       0.36175467
N        2.46058182      -2.45877486      -0.02971291
H        3.15380915      -3.03555693      -0.47419539