37
Properties=species:S:1:pos:R:3 energy=-609639.0948827246 pbc="F F F"
O       -2.37057707       2.67478395       0.81306818
C       -2.68682101       1.65350505       0.26918520
O       -2.86870166       1.56140918      -1.03340639
H       -3.09238357       0.63347339      -1.32016727
C       -2.94172440       0.35623614       1.06306436
H       -3.99181970       0.07894752       0.90184467
H       -2.77907647       0.55925695       2.12072606
N       -2.09295282      -0.75177316       0.66732673
H       -1.36271744      -1.07558770       1.30581902
C       -2.22684102      -1.39198174      -0.49449477
O       -3.00556908      -1.04997588      -1.37812122
C       -1.33240841      -2.62623384      -0.63418724
H       -1.58016036      -3.12430454      -1.57120272
H       -1.54682277      -3.29666898       0.20678082
N        0.07756220      -2.30297293      -0.62952730
H        0.61974459      -2.38078490      -1.48037233
C        0.76893182      -1.99944232       0.47673041
O        0.25178485      -1.85907597       1.57600411
C        2.27640746      -1.88311267       0.25438355
N        2.56476701      -1.82782984      -1.17057237
H        3.54482592      -2.02554117      -1.33860067
H        2.38580977      -0.88685521      -1.51487101
H        2.70069021      -2.81665194       0.64737373
C        2.84698020      -0.70657933       1.08358157
H        2.45894810      -0.79836484       2.09835618
H        3.93557741      -0.79313878       1.11246867
C        2.45041920       0.61454321       0.48760113
C        1.25684661       1.22930235       0.84696568
H        0.63211804       0.77173231       1.59981564
C        0.87413055       2.42396348       0.26346515
H       -0.05094695       2.89511077       0.55721570
C        1.67801299       3.01395096      -0.69826981
H        1.37711613       3.94381148      -1.15633862
C        2.86985873       2.41301216      -1.06293091
H        3.50594005       2.87211481      -1.80597778
C        3.25377845       1.22133436      -0.47186233
H        4.19705648       0.76756510      -0.74776188
37
Properties=species:S:1:pos:R:3 energy=-609636.0283411045 pbc="F F F"
O       -2.74024249       2.15459879       1.98828291
C       -2.81399921       1.52955146       0.96813270
O       -2.68765824       2.08063378      -0.22444801
H       -2.66648421       1.39960492      -0.95442425
C       -3.10910732       0.01496942       0.95805657
H       -4.02942059      -0.13191185       0.37735318
H       -3.27169310      -0.31136225       1.98437197
N       -2.04769361      -0.79067133       0.38378163
H       -1.52929235      -1.43000925       0.99171088
C       -1.73981175      -0.78373331      -0.91280291
O       -2.24523649      -0.02582730      -1.73397644
C       -0.72177240      -1.85269224      -1.32200058
H       -0.58770870      -1.79553971      -2.40196934
H       -1.14486392      -2.82955428      -1.05696170
N        0.56766096      -1.71404472      -0.68226133
H        1.35368029      -1.37405278      -1.21871369
C        0.80614021      -2.01132419       0.60233793
O       -0.05927839      -2.36551267       1.39044464
C        2.26393192      -1.84903095       1.00803181
N        3.12154058      -2.20003976      -0.11510149
H        4.09490452      -2.05858148       0.13344826
H        3.00545447      -3.17923710      -0.35466452
H        2.42441230      -2.48119291       1.89839784
C        2.49797116      -0.37879085       1.42482530
H        1.92076729      -0.18776134       2.33060916
H        3.55848885      -0.26078781       1.66067031
C        2.09926718       0.59311637       0.34941478
C        0.90918938       1.30426792       0.44452855
H        0.28043642       1.18313826       1.31584883
C        0.52799532       2.18011652      -0.55711084
H       -0.39066634       2.73724275      -0.46288249
C        1.32576510       2.34325404      -1.67656278
H        1.02475511       3.02163229      -2.46037273
C        2.51409683       1.64098008      -1.78075404
H        3.14652780       1.77090219      -2.64710651
C        2.90129786       0.77703119      -0.77147755
H        3.83343547       0.23932877      -0.85460044
37
Properties=species:S:1:pos:R:3 energy=-609636.340051615 pbc="F F F"
O       -2.47135180       2.53448576       1.71539362
C       -2.62868814       1.76374837       0.81002028
O       -2.61388982       2.13102424      -0.45591749
H       -2.65697048       1.35048225      -1.07717572
C       -2.91760243       0.26889720       1.06026432
H       -3.89973518       0.05420365       0.61766012
H       -2.96278445       0.10516141       2.13604138
N       -1.93177288      -0.63744523       0.50100873
H       -1.38964608      -1.22595155       1.13779822
C       -1.76714979      -0.82872712      -0.80736221
O       -2.33431998      -0.17326191      -1.67522841
C       -0.83824525      -1.99285040      -1.16246756
H       -0.79727609      -2.07230055      -2.24873927
H       -1.28513878      -2.90472628      -0.74704015
N        0.50679998      -1.86266772      -0.65048123
H        1.25722636      -1.61272641      -1.27980791
C        0.84393077      -2.05183670       0.63249063
O        0.03299020      -2.26384313       1.52248256
C        2.34115716      -1.96025033       0.89456151
N        3.07409107      -2.37218450      -0.29493182
H        2.90860500      -3.35479457      -0.48763897
H        4.07075844      -2.25262445      -0.14690290
H        2.55465610      -2.58882110       1.77618586
C        2.68071399      -0.49931311       1.26487237
H        2.29448243      -0.30590360       2.26649153
H        3.76940557      -0.40216535       1.29272248
C        2.10102506       0.50142695       0.30275577
C        2.55729343       0.57620227      -1.00906454
H        3.34940598      -0.08145595      -1.33478823
C        2.00215389       1.48145188      -1.89631942
H        2.36041960       1.52199746      -2.91490379
C        1.00082396       2.34137751      -1.47840314
H        0.57199645       3.05349636      -2.16659833
C        0.55497755       2.28886442      -0.16943117
H       -0.21056183       2.96870569       0.16919984
C        1.09133865       1.36373821       0.70960306
H        0.72640624       1.32244258       1.72615431
37
Properties=species:S:1:pos:R:3 energy=-609637.5220602052 pbc="F F F"
O       -2.42449156       1.52301492      -2.58879038
C       -2.62269695       1.21432839      -1.44788051
O       -2.54229521       2.06945296      -0.44549616
H       -2.62201009       1.61923169       0.44076678
C       -3.02636301      -0.22102381      -1.04747960
H       -3.16186012      -0.80888026      -1.95421878
H       -3.97910629      -0.15601629      -0.50630178
N       -2.04536252      -0.88464820      -0.20878259
H       -1.52460245      -1.67463252      -0.58984163
C       -1.80703205      -0.53186773       1.05610786
O       -2.32489945       0.43404329       1.60502036
C       -0.82831452      -1.45498122       1.78330491
H       -1.19746107      -2.48313540       1.70509013
H       -0.78264538      -1.15806964       2.83096487
N        0.50815181      -1.41237678       1.22283610
H        1.16281356      -0.75755962       1.62358490
C        0.83160276      -2.03031790       0.06988412
O        0.02389585      -2.68140962      -0.57748371
C        2.28750149      -1.87544092      -0.37176678
N        2.71345412      -2.93476836      -1.26146423
H        2.06464009      -2.99947418      -2.04072716
H        2.69403655      -3.82971987      -0.78397381
H        2.93514475      -1.88806394       0.51198990
C        2.43754325      -0.52001416      -1.09899560
H        3.47638695      -0.44458035      -1.42480962
H        1.80324628      -0.53192688      -1.98725437
C        2.07294579       0.63892059      -0.21780389
C        2.87079697       0.96892173       0.87456348
H        3.78238689       0.41561443       1.05393952
C        2.51445117       2.00366785       1.72146696
H        3.14482580       2.24923622       2.56377955
C        1.35628828       2.72622877       1.48560687
H        1.07812429       3.53390825       2.14528433
C        0.56316816       2.41634250       0.39438274
H       -0.33346384       2.98192650       0.19478145
C        0.91813296       1.37641572      -0.44793460
H        0.29685683       1.14477292      -1.30157860
37
Properties=species:S:1:pos:R:3 energy=-609636.9430545676 pbc="F F F"
O       -2.40080834       2.85757568      -0.31745901
C       -2.71587851       1.70031797      -0.30062316
O       -3.27535830       1.09520361      -1.32880031
H       -3.46786883       0.13336335      -1.14478283
C       -2.53090099       0.83201679       0.96216147
H       -3.53711932       0.55960148       1.30850401
H       -2.03708179       1.43448500       1.72309340
N       -1.75281834      -0.37634005       0.75892870
H       -0.85447408      -0.46496361       1.23678693
C       -2.19608450      -1.42180470       0.06032238
O       -3.24177957      -1.42285997      -0.58158123
C       -1.29702343      -2.65800034       0.13247323
H       -1.76474307      -3.45408590      -0.44665487
H       -1.22970867      -2.95974186       1.18487109
N        0.03771574      -2.42060252      -0.36974316
H        0.32655585      -2.82689188      -1.24907800
C        0.99265053      -1.80311286       0.34270227
O        0.78681653      -1.27549346       1.42448848
C        2.34905157      -1.78279842      -0.34913792
N        2.47654589      -2.95924000      -1.20142272
H        2.59508966      -3.79480454      -0.63761226
H        3.29302805      -2.87363794      -1.79717345
H        3.11554866      -1.71511672       0.43961770
C        2.42480466      -0.51065565      -1.21743175
H        3.41246706      -0.47519845      -1.68526071
H        1.67412527      -0.58487587      -2.00648188
C        2.20307040       0.72719856      -0.39378599
C        0.99904909       1.41478705      -0.44816245
H        0.21608784       1.07459639      -1.11248694
C        0.79309668       2.54198210       0.32850067
H       -0.14551304       3.07092548       0.26269871
C        1.79072810       2.98671488       1.17830415
H        1.63116104       3.86395480       1.78741337
C        2.99513378       2.30686097       1.24158839
H        3.77859629       2.65143734       1.90083214
C        3.19989466       1.18633865       0.45785849
H        4.14541404       0.66386529       0.50484377
37
Properties=species:S:1:pos:R:3 energy=-609637.7164041046 pbc="F F F"
O       -4.18705512       2.01449011       1.43228131
C       -3.68190679       1.41977959       0.52298365
O       -4.36874691       0.93934361      -0.49546947
H       -3.79383314       0.44939346      -1.14406067
C       -2.15392142       1.20411777       0.44644000
H       -1.70386812       1.64637555       1.33375384
H       -1.79731457       1.73136529      -0.44853895
N       -1.75942546      -0.19008009       0.37217782
H       -1.19548541      -0.58088247       1.12770434
C       -1.93190879      -0.93687516      -0.71973702
O       -2.56699692      -0.57293935      -1.70310371
C       -1.28278052      -2.31992626      -0.63495291
H       -1.57033360      -2.89350264      -1.51562551
H       -1.65802729      -2.81619724       0.26746675
N        0.16025181      -2.24731591      -0.56597462
H        0.72008495      -2.48861163      -1.37312246
C        0.83511747      -1.91859149       0.54316544
O        0.29422054      -1.58909601       1.58805961
C        2.35431005      -2.01773659       0.39626871
N        2.70964319      -2.13897753      -1.00836393
H        3.66494204      -2.46418440      -1.10442507
H        2.65330120      -1.22651379      -1.45474238
H        2.64266874      -2.95081335       0.89733816
C        3.03047980      -0.84073160       1.14281858
H        2.64750282      -0.83280975       2.16330253
H        4.10828437      -1.01670721       1.16993729
C        2.73415032       0.46634156       0.46561525
C        1.62915325       1.22295085       0.83773068
H        1.01218515       0.88441450       1.65649441
C        1.32950239       2.40182958       0.17931943
H        0.47814578       2.99044061       0.48785645
C        2.12533966       2.83748238      -0.86730408
H        1.88974577       3.75697669      -1.38175316
C        3.23197777       2.09616016      -1.24156955
H        3.86449999       2.43507833      -2.04893147
C        3.53553052       0.92035952      -0.57656566
H        4.41749967       0.36111033      -0.86030697
37
Properties=species:S:1:pos:R:3 energy=-609635.1119609501 pbc="F F F"
O       -4.56684415       1.31251874       1.61038742
C       -3.71566453       1.24620992       0.76973473
O       -3.95216045       1.44593484      -0.51314945
H       -3.13902211       1.31830870      -1.07320526
C       -2.23983823       0.96613979       1.12788757
H       -2.16775685       0.83527238       2.20653914
H       -1.66320169       1.84903022       0.82441879
N       -1.69493028      -0.21203773       0.47935797
H       -1.37023102      -0.98311083       1.06473535
C       -1.40636060      -0.25934487      -0.82194353
O       -1.69553534       0.62548486      -1.61956986
C       -0.71829103      -1.55453056      -1.26039094
H       -0.65540550      -1.55947945      -2.34824823
H       -1.33688423      -2.39416196      -0.92317192
N        0.61147529      -1.70478210      -0.71358093
H        1.41316269      -1.51052614      -1.29744204
C        0.86444057      -2.00215295       0.56854352
O       -0.00149222      -2.16702079       1.41397199
C        2.35151437      -2.09251634       0.89046107
N        3.08540753      -2.53059802      -0.28834024
H        2.80392416      -3.47019208      -0.54868640
H        4.08027758      -2.55308792      -0.08980975
H        2.45913238      -2.77420704       1.75125486
C        2.83112672      -0.69117558       1.33424020
H        2.41771089      -0.48958576       2.32328707
H        3.92082502      -0.71595648       1.41502451
C        2.41039741       0.39141141       0.37912186
C        1.42606511       1.30342357       0.73745815
H        0.98214826       1.24747813       1.72168389
C        1.01822756       2.28509667      -0.14917757
H        0.26858895       3.00455267       0.14691397
C        1.57444890       2.35632932      -1.41381692
H        1.24642539       3.11477660      -2.10776308
C        2.55628048       1.45196760      -1.78005550
H        3.00073007       1.50591903      -2.76305575
C        2.97811933       0.48267739      -0.88724138
H        3.74991682      -0.21534635      -1.17430706
37
Properties=species:S:1:pos:R:3 energy=-609636.5878625474 pbc="F F F"
O       -2.43996415       1.65791598      -2.52554122
C       -2.63960834       1.28237736      -1.40492688
O       -2.59730476       2.08467338      -0.35778215
H       -2.67010112       1.58486462       0.50286335
C       -3.00430634      -0.18341813      -1.08698085
H       -3.10622584      -0.72633854      -2.02563895
H       -3.96856010      -0.17434361      -0.56235718
N       -2.02001819      -0.86363236      -0.26583585
H       -1.47503695      -1.62455926      -0.67437271
C       -1.81045870      -0.57354523       1.01910122
O       -2.35331422       0.35427990       1.60859609
C       -0.84088605      -1.52704970       1.72164834
H       -1.21078898      -2.54972374       1.58963480
H       -0.82141642      -1.27780193       2.78240013
N        0.50936160      -1.46373114       1.19938684
H        1.17366363      -0.88164086       1.68538860
C        0.86491278      -2.02913532       0.03074135
O        0.06407940      -2.59844636      -0.69475421
C        2.33147735      -1.87608357      -0.34304020
N        2.72853822      -3.02645759      -1.12130388
H        3.56032393      -2.83461106      -1.66693958
H        1.97567886      -3.28686288      -1.75112640
H        2.94419428      -1.84886491       0.56700516
C        2.48038548      -0.51669100      -1.08611673
H        3.52730124      -0.41390579      -1.38469439
H        1.86412600      -0.54093841      -1.98771791
C        2.07941225       0.63431843      -0.21159687
C        2.86175165       0.98025139       0.88680432
H        3.78545950       0.44906714       1.07219864
C        2.47560854       2.00404600       1.73347445
H        3.09397875       2.26143809       2.58110684
C        1.30332628       2.70036191       1.49015362
H        1.00181551       3.50048997       2.14872091
C        0.52486517       2.37373168       0.39322704
H       -0.38195950       2.92085548       0.18880414
C        0.90803352       1.34297668      -0.44769112
H        0.29753588       1.09768670      -1.30542241
37
Properties=species:S:1:pos:R:3 energy=-609635.173126088 pbc="F F F"
O       -2.37818090       3.09767689       0.55060191
C       -2.55730128       1.97936488       0.15599337
O       -2.88982547       1.70278236      -1.08817736
H       -3.02522345       0.72346592      -1.23710960
C       -2.48184567       0.77452028       1.11661153
H       -3.51640783       0.42706036       1.24882987
H       -2.10258851       1.13398275       2.07205895
N       -1.65642488      -0.34216677       0.69277715
H       -0.86626103      -0.61104480       1.28402580
C       -1.95744535      -1.14253001      -0.32835607
O       -2.85040900      -0.91698039      -1.13980577
C       -1.14411318      -2.43961847      -0.39600110
H       -1.50349884      -3.00972312      -1.25269097
H       -1.35784318      -2.99765309       0.52514612
N        0.28572254      -2.25776408      -0.51779458
H        0.74935810      -2.59830659      -1.34691483
C        1.07830647      -1.88868452       0.49938570
O        0.65656784      -1.51606810       1.58300197
C        2.56454203      -1.96049821       0.16791071
N        2.82564771      -3.20586555      -0.54514939
H        2.67619062      -4.00346635       0.06461031
H        3.79198730      -3.23406983      -0.85323544
H        3.10662980      -1.86819655       1.12250865
C        2.93129296      -0.77499976      -0.74904773
H        4.01022449      -0.60994046      -0.69801857
H        2.67655466      -1.05064775      -1.77421295
C        2.19202797       0.47528213      -0.35877536
C        1.18179660       0.97731399      -1.16835663
H        0.94288627       0.47892362      -2.09798064
C        0.48624915       2.11595456      -0.80249869
H       -0.28643521       2.50577463      -1.44713171
C        0.77751281       2.75367223       0.39100896
H        0.21570263       3.62745993       0.68163728
C        1.77885719       2.25552464       1.20722582
H        2.01199351       2.74834959       2.13950753
C        2.48716996       1.12853020       0.83084203
H        3.27376045       0.74954181       1.46722019
37
Properties=species:S:1:pos:R:3 energy=-609635.9157284749 pbc="F F F"
O       -2.00889337       1.59574747       0.90054181
C       -2.69343253       0.75389057       0.39101915
O       -2.86202810       0.68503396      -0.92429739
H       -3.34161836      -0.13280466      -1.20246692
C       -3.37941924      -0.36934675       1.18708066
H       -4.41082860      -0.49456934       0.84251481
H       -3.36184528      -0.13338641       2.24984612
N       -2.64744821      -1.60509733       0.96187447
H       -1.85844548      -1.79781891       1.57560185
C       -2.67529772      -2.21455027      -0.23485430
O       -3.45328826      -1.90489362      -1.12787601
C       -1.54396706      -3.21903398      -0.43285450
H       -1.74746034      -3.86291191      -1.28702875
H       -1.37384650      -3.81268368       0.46767402
N       -0.36358755      -2.41637098      -0.69762233
H       -0.20783068      -2.06215491      -1.63446419
C        0.26622753      -1.74125374       0.28461459
O        0.05265235      -1.94035785       1.46929508
C        1.25509531      -0.69886912      -0.23114422
N        0.79887148      -0.23581791      -1.53632448
H        1.52063784       0.32805532      -1.97261725
H       -0.01154595       0.36826681      -1.41905861
H        2.22116951      -1.19889134      -0.37765168
C        1.41602930       0.41674436       0.82322077
H        0.44762171       0.90022871       0.97460599
H        1.71809418      -0.04611468       1.76345801
C        2.43197140       1.42223038       0.36869941
C        2.03026890       2.61830027      -0.21272075
H        0.97623332       2.84585120      -0.28855621
C        2.96793713       3.52385371      -0.67879636
H        2.64229337       4.45171483      -1.12591707
C        4.31875732       3.24224337      -0.57143741
H        5.05096458       3.94845055      -0.93421136
C        4.72849980       2.05265512       0.00792295
H        5.78177733       1.83009669       0.09868216
C        3.79090463       1.14834244       0.47221708
H        4.11343062       0.22212640       0.92716430
37
Properties=species:S:1:pos:R:3 energy=-609636.1610377525 pbc="F F F"
O       -3.63099573       1.98495896       0.47281882
C       -3.81790316       0.86827235       0.08152249
O       -3.97420726       0.57315109      -1.19878565
H       -4.05615942      -0.40416951      -1.35437208
C       -3.89574096      -0.34104567       1.03581249
H       -4.85349130      -0.84771991       0.86628596
H       -3.84307301       0.01400376       2.06390028
N       -2.81608872      -1.28382330       0.80991816
H       -2.01044395      -1.27062172       1.43571733
C       -2.75999721      -2.06437961      -0.27291257
O       -3.60335320      -2.05523005      -1.16197395
C       -1.51664714      -2.95417991      -0.32475382
H       -1.62591103      -3.67349907      -1.13568543
H       -1.40639224      -3.47789280       0.63010844
N       -0.33410689      -2.15132958      -0.55365318
H        0.03888656      -2.04449683      -1.48803635
C        0.24702601      -1.41548894       0.40544152
O       -0.15759251      -1.37576036       1.55745596
C        1.47533786      -0.64417160      -0.07464948
N        1.40171237      -0.46425835      -1.51760791
H        2.29252374      -0.13074405      -1.87013454
H        0.70978143       0.24712993      -1.73879095
H        2.34648585      -1.27952502       0.13319739
C        1.61405814       0.66463934       0.73164518
H        0.76737369       1.31403348       0.49492517
H        1.56525765       0.41291445       1.79172565
C        2.90965056       1.34575824       0.40317226
C        4.09497237       0.91515948       0.98817810
H        4.06720578       0.11833620       1.71800981
C        5.30058470       1.50278310       0.65211423
H        6.21334076       1.16234105       1.11863778
C        5.33860317       2.52760849      -0.27911973
H        6.27978204       2.98735048      -0.54133207
C        4.16455569       2.96314591      -0.86775074
H        4.18608668       3.76426049      -1.59191750
C        2.95823652       2.37417617      -0.52928523
H        2.04405548       2.72582163      -0.98771085
37
Properties=species:S:1:pos:R:3 energy=-609636.8319769881 pbc="F F F"
O       -4.38691047      -1.80018550       2.37963890
C       -4.26195862      -1.38650741       1.26232054
O       -4.37081768      -2.15564884       0.19335278
H       -4.19484608      -1.65949997      -0.64990279
C       -3.98617933       0.10272760       0.96486727
H       -3.96718381       0.64971742       1.90634721
H       -4.80891469       0.47271707       0.33997787
N       -2.73100948       0.32447195       0.27202508
H       -1.93859127       0.70621201       0.79037460
C       -2.54183241      -0.00965616      -1.00614425
O       -3.38291896      -0.57624643      -1.69462084
C       -1.16488399       0.37838936      -1.55081947
H       -1.00147824       1.44489314      -1.36179140
H       -1.14708653       0.18643671      -2.62339469
N       -0.10131834      -0.36946039      -0.91711925
H        0.29480308      -1.18066200      -1.37350606
C        0.35745745      -0.09899894       0.31174191
O       -0.11352911       0.77446199       1.02643167
C        1.50778356      -0.99647992       0.76425397
N        1.97491707      -1.81145182      -0.34513206
H        2.52039282      -2.59431194      -0.00328869
H        2.58196516      -1.25690904      -0.94423595
H        1.08042108      -1.66663192       1.52096539
C        2.59982212      -0.13203503       1.44317901
H        2.11087381       0.48756674       2.19519259
H        3.31549162      -0.79221901       1.93783508
C        3.29901035       0.72772604       0.42975439
C        2.77445819       1.96312094       0.06717589
H        1.88398923       2.32426459       0.55934097
C        3.38672966       2.72723244      -0.90942799
H        2.97155996       3.68735786      -1.17857525
C        4.53140103       2.26724928      -1.53964592
H        5.00911057       2.86486241      -2.30163604
C        5.06503052       1.04168757      -1.18254909
H        5.96161781       0.67904050      -1.66377153
C        4.45134531       0.27723149      -0.20469792
H        4.88320386      -0.67369078       0.07842177
37
Properties=species:S:1:pos:R:3 energy=-609636.0350273581 pbc="F F F"
O       -4.46248043       0.80793992      -2.10170611
C       -3.66487454       0.99038246      -1.22710295
O       -3.97722094       1.53408821      -0.06589596
H       -3.20136795       1.57769654       0.55482938
C       -2.17025763       0.64047273      -1.40390368
H       -1.60743488       1.57813375      -1.31101481
H       -2.03062115       0.22670054      -2.40155710
N       -1.67735059      -0.31421638      -0.42833049
H       -1.36019233      -1.22519729      -0.75465834
C       -1.46604132       0.00006239       0.85213711
O       -1.78635920       1.07224546       1.35142184
C       -0.80083696      -1.11212406       1.66252968
H       -1.36475245      -2.03814923       1.51103934
H       -0.81822136      -0.83687691       2.71691884
N        0.57175089      -1.34698556       1.25943019
H        1.29043961      -0.82539200       1.73808725
C        0.89173785      -2.00735302       0.12872140
O        0.05203840      -2.49262759      -0.61363538
C        2.39142642      -2.12093823      -0.15686853
N        2.72033778      -3.28985974      -0.94465566
H        2.11567185      -3.32269883      -1.76088822
H        2.54960487      -4.13731144      -0.41384228
H        2.93763370      -2.17699326       0.79079921
C        2.83254227      -0.85729304      -0.93136989
H        3.91288891      -0.92029976      -1.07019143
H        2.36195280      -0.88108478      -1.91570982
C        2.45855012       0.40340340      -0.20841887
C        3.08779055       0.74584285       0.98493480
H        3.89186168       0.12689120       1.35870515
C        2.70114727       1.87318047       1.68844087
H        3.19727685       2.12521836       2.61420521
C        1.68305023       2.67835537       1.20571003
H        1.37718395       3.55507273       1.75506338
C        1.06331081       2.35659705       0.01110888
H        0.28045476       2.99311201      -0.37364412
C        1.44584231       1.22458861      -0.68776536
H        0.96080248       0.97508203      -1.62108612
37
Properties=species:S:1:pos:R:3 energy=-609638.5767282563 pbc="F F F"
O       -2.70939387       2.89680485       0.53807677
C       -2.91140232       1.84405465       0.00303544
O       -4.00372634       1.12885073       0.19545964
H       -3.97619477       0.26055362      -0.28448285
C       -1.90280232       1.22143608      -0.98600939
H       -1.08174078       1.91964967      -1.14605780
H       -2.42736236       1.03820171      -1.93124995
N       -1.36107302      -0.03624338      -0.50939458
H       -0.45247675      -0.01545351      -0.06541358
C       -2.07468769      -1.17188896      -0.53524208
O       -3.24755957      -1.20325240      -0.88381003
C       -1.32521622      -2.42454913      -0.10728685
H       -1.77583678      -3.28405937      -0.60996827
H       -1.45887081      -2.54237433       0.97554223
N        0.08942323      -2.35292832      -0.35285281
H        0.45548708      -2.45061037      -1.29006277
C        0.98550827      -2.15667995       0.63517108
O        0.67794519      -2.06758941       1.80552653
C        2.43238811      -2.04481062       0.14335076
N        2.46908416      -1.94610940      -1.30789552
H        3.39504630      -2.17039095      -1.65375364
H        2.26380508      -0.99112094      -1.59228271
H        2.92770331      -2.97911011       0.43278101
C        3.12210554      -0.87447487       0.88906328
H        2.99655190      -1.04596042       1.95813725
H        4.18792334      -0.88181322       0.65007529
C        2.51136868       0.44179371       0.50088410
C        1.40392357       0.93894916       1.18305358
H        1.01504753       0.39020329       2.02835165
C        0.81862910       2.13503133       0.80189418
H       -0.03458946       2.51760165       1.34205817
C        1.32666154       2.84534835      -0.27529326
H        0.87169221       3.78007297      -0.56682647
C        2.42533924       2.35926032      -0.96181390
H        2.83316387       2.91221800      -1.79534377
C        3.01349983       1.16612960      -0.57480290
H        3.88928357       0.80937753      -1.10083392
37
Properties=species:S:1:pos:R:3 energy=-609632.4270748962 pbc="F F F"
O       -2.76170909       2.42772780       1.86549912
C       -2.37092094       1.35905518       1.48590729
O       -1.54749142       0.62585967       2.21981528
H       -1.24908244      -0.23203801       1.84047359
C       -2.83751845       0.80362517       0.13292742
H       -2.57646744       1.53350168      -0.63950729
H       -3.93074182       0.73432887       0.17597070
N       -2.25901603      -0.45579707      -0.25013933
H       -2.30456911      -1.22254385       0.40861403
C       -1.48640881      -0.59735619      -1.34611616
O       -1.31404012       0.26357600      -2.17771832
C       -0.81494074      -1.97923328      -1.43000243
H       -0.58959967      -2.20050197      -2.47205874
H       -1.47934661      -2.74649401      -1.02073046
N        0.42497399      -1.97179431      -0.68201204
H        1.30516462      -1.90188573      -1.17584945
C        0.48889322      -1.82784675       0.64332754