65
Properties=species:S:1:pos:R:3 energy=-1011525.5001420061 pbc="F F F"
O       -2.37073199      -2.96848174       0.79247555
O        0.65311779       0.79514127       2.56745108
O        2.40931135      -0.04913121       3.64876409
O        0.97673522      -0.88305023      -0.43705521
O        1.54151771      -2.53057561      -1.84518187
O       -2.42270534       3.12002308      -0.89215620
O       -0.97385023       1.60624474      -1.69670458
O        3.03615256       1.39106518      -0.40419657
O        1.36808199       2.77125421       0.19014310
C       -3.85870371      -1.59220842      -0.53485036
C       -4.01826069      -0.58138181       0.61446252
C       -3.46389705       0.77064146       0.29047233
C       -2.50286880       1.43954330       0.91760225
C       -1.71510629       0.94628686       2.09982691
C       -0.35878460       0.37849562       1.64749489
C       -0.27140154      -1.15905261       1.55424285
C       -0.10081033      -1.64695945       0.10873154
C       -1.33830812      -1.42397288      -0.76316726
C       -2.52555432      -2.37226925      -0.48946966
C        0.92955960      -1.48624995       2.39125677
C        1.44016429      -0.21152107       2.95324832
C        1.49629288      -2.66093238       2.62410187
C       -2.54733485      -3.47924377      -1.55202819
C       -2.04402471       2.80104685       0.44610881
C       -1.78451658       2.47920154      -1.87135651
C       -2.20769097       2.99897690      -3.22073946
C        1.69224695      -1.40330519      -1.43385281
C        2.66275494      -0.40632464      -1.95189022
C        3.75667589      -0.73903325      -2.64490759
C        4.21399306      -2.09883315      -3.02371856
C        2.37846311       1.03935266      -1.62857163
C        2.44280073       2.26984969       0.40773891
C        3.30087644       2.55386751       1.60739972
H       -3.05010537      -3.64623783       0.88616605
H       -4.67371839      -2.31937375      -0.47563883
H       -3.93634179      -1.08353300      -1.49616110
H       -5.08735794      -0.45748929       0.81213323
H       -3.55637358      -0.99766075       1.50817823
H       -3.94028251       1.24127250      -0.56224813
H       -2.27075797       0.20309622       2.67008754
H       -1.50392548       1.79113821       2.75885512
H       -0.09167577       0.82349544       0.68317148
H       -1.16276786      -1.63959986       1.95870352
H        0.17455301      -2.70790241       0.10285134
H       -1.02527441      -1.55846784      -1.79973225
H       -1.64594154      -0.38765570      -0.65212909
H        1.11030866      -3.57860942       2.21420894
H        2.37404156      -2.71883534       3.24537389
H       -3.33832337      -4.19956070      -1.34330896
H       -1.59332775      -4.00081690      -1.55602412
H       -2.71875011      -3.05743470      -2.53819781
H       -2.49842909       3.58655399       1.05729727
H       -0.95299843       2.86882604       0.52859985
H       -2.15056325       2.20285955      -3.95725683
H       -1.51955258       3.79010132      -3.51265960
H       -3.21095830       3.40980472      -3.16850818
H        4.40667973       0.06665518      -2.96910565
H        3.56091445      -2.86640873      -2.62465407
H        5.23212213      -2.25318946      -2.66723429
H        4.23385841      -2.18185673      -4.11036687
H        2.78749604       1.68379290      -2.41561191
H        1.30487568       1.22816368      -1.53208806
H        3.08737253       3.55154469       1.97957891
H        4.35035180       2.44997162       1.34987919
H        3.06706090       1.83707321       2.39339274
65
Properties=species:S:1:pos:R:3 energy=-1011525.5257115142 pbc="F F F"
O       -2.36964473      -2.96425479       0.78933159
O        0.65460024       0.79445980       2.57287103
O        2.40717200      -0.05514679       3.65600570
O        0.97819140      -0.87879553      -0.43754053
O        1.54201393      -2.52578021      -1.84660425
O       -2.42175286       3.12249737      -0.89801307
O       -0.97118080       1.61268461      -1.70697963
O        3.04586218       1.39016354      -0.39938715
O        1.37517164       2.76166294       0.20767485
C       -3.85784535      -1.58583220      -0.53502700
C       -4.01607862      -0.57526612       0.61478274
C       -3.46137885       0.77639832       0.28998777
C       -2.49808792       1.44467565       0.91435981
C       -1.71106765       0.95266068       2.09755538
C       -0.35503866       0.38181741       1.64862931
C       -0.27085459      -1.15579673       1.55318629
C       -0.10001692      -1.64239053       0.10726517
C       -1.33722951      -1.41798262      -0.76466495
C       -2.52477828      -2.36621506      -0.49166773
C        0.92855308      -1.48674698       2.39102339
C        1.43953619      -0.21418786       2.95760746
C        1.49384079      -2.66264509       2.62117682
C       -2.54746961      -3.47159754      -1.55583354
C       -2.03763256       2.80418551       0.43887949
C       -1.79371183       2.47472258      -1.87933240
C       -2.26946944       2.95007849      -3.22819701
C        1.69383757      -1.39897664      -1.43441159
C        2.66609917      -0.40289597      -1.95074826
C        3.75868503      -0.73632961      -2.64559653
C        4.21282325      -2.09607219      -3.02837719
C        2.38573758       1.04275343      -1.62364943
C        2.45233454       2.26301796       0.41897062
C        3.31337914       2.54371616       1.61727531
H       -3.04789166      -3.64331499       0.88170483
H       -4.67287796      -2.31290955      -0.47507721
H       -3.93646434      -1.07718633      -1.49630788
H       -5.08489519      -0.45122012       0.81387756
H       -3.55303513      -0.99187953       1.50771017
H       -3.93952543       1.24767736      -0.56137614
H       -2.26829012       0.21180827       2.66939301
H       -1.49896128       1.79891284       2.75450002
H       -0.08354732       0.82788459       0.68604928
H       -1.16355690      -1.63490328       1.95644727
H        0.17460433      -2.70351664       0.10046652
H       -1.02428304      -1.55145988      -1.80137374
H       -1.64429370      -0.38164157      -0.65250038
H        1.10788730      -3.57872227       2.20769253
H        2.37043862      -2.72321542       3.24381624
H       -1.59387961      -3.99391614      -1.56045426
H       -2.71828060      -3.04822064      -2.54143532
H       -3.33909929      -4.19155816      -1.34826443
H       -2.48665987       3.59196843       1.05104015
H       -0.94596834       2.86889105       0.51605719
H       -1.54126092       2.68297081      -3.98768954
H       -2.42895324       4.02374601      -3.20847977
H       -3.21617990       2.46514096      -3.45864053
H        4.40998818       0.06883025      -2.96850420
H        5.23110435      -2.25332229      -2.67354583
H        4.23115808      -2.17646870      -4.11524246
H        3.55872337      -2.86333789      -2.63047978
H        2.79556053       1.68805336      -2.40955672
H        1.31276464       1.23411604      -1.52541859
H        3.07757528       1.82802444       2.40371170
H        3.10399342       3.54215262       1.98981585
H        4.36208501       2.43597838       1.35830466
65
Properties=species:S:1:pos:R:3 energy=-1011524.1086962335 pbc="F F F"
O       -2.28678105      -3.33299806       0.78338793
O        0.10697583       1.16335102       1.89633948
O        2.05166108       0.76781010       2.91418328
O        0.53834410      -0.88965269      -0.84604811
O        2.03277284      -2.55997377      -0.84033587
O       -2.18151526       3.19469302       0.27392078
O       -1.46038383       2.34023798      -1.66988155
O        2.38678189       1.61017533      -0.52506743
O        4.50885364       2.02025445      -1.12139624
C       -4.12234993      -2.32194579      -0.42411122
C       -4.32771240      -1.28200331       0.69046306
C       -4.13875000       0.12912360       0.23082481
C       -3.31840436       1.05578086       0.71617269
C       -2.28912891       0.84509310       1.79299812
C       -0.91962929       0.45128822       1.20128686
C       -0.56186648      -1.04710897       1.27745529
C       -0.40314435      -1.67818716      -0.11763400
C       -1.70714356      -1.71523139      -0.91472645
C       -2.67264952      -2.84751897      -0.49578055
C        0.73927168      -1.05075378       2.02531202
C        1.07558280       0.35702472       2.34279356
C        1.51443534      -2.07502396       2.35095269
C       -2.59179693      -3.99557573      -1.51008839
C       -3.40100787       2.46841542       0.17332444
C       -1.27984811       3.03574241      -0.70247216
C       -0.03156725       3.81195888      -0.40428251
C        1.73953293      -1.42132933      -1.12115415
C        2.60932220      -0.43933324      -1.80633724
C        3.78270915      -0.75832731      -2.36799109
C        4.42518179      -2.09138518      -2.45106331
C        2.14380395       0.99776632      -1.79741517
C        3.62183390       2.09132527      -0.31121634
C        3.72300602       2.75072709       1.03271676
H       -2.81234166      -4.11841615       0.97400847
H       -4.77922060      -3.17542088      -0.23578466
H       -4.39596387      -1.89897923      -1.39066140
H       -5.35866955      -1.36443445       1.04818011
H       -3.66476929      -1.52483748       1.51889492
H       -4.81070920       0.41719526      -0.56976966
H       -2.61711828       0.09554817       2.51283304
H       -2.14403611       1.78793529       2.32424461
H       -0.86116050       0.77837070       0.15863778
H       -1.31797547      -1.62377211       1.81102853
H        0.00223232      -2.69026935      -0.00703794
H       -1.44286286      -1.85022568      -1.96430060
H       -2.20310095      -0.75090006      -0.82687725
H        1.26225804      -3.09111724       2.10218991
H        2.44050568      -1.90119066       2.87235757
H       -3.23821854      -4.81981912      -1.20997012
H       -1.56947077      -4.36180918      -1.56816131
H       -2.90236241      -3.65794515      -2.49463768
H       -3.73008683       2.45598953      -0.87125892
H       -4.11498509       3.04534809       0.77122320
H       -0.26116024       4.67018436       0.21913234
H        0.44837846       4.11652433      -1.32970543
H        0.64512282       3.15196505       0.13895617
H        4.35078012       0.04760263      -2.81851284
H        4.71687809      -2.29269833      -3.48146111
H        3.77611447      -2.87828384      -2.08428045
H        5.33677442      -2.07782236      -1.85321375
H        2.68317503       1.56362409      -2.56377544
H        1.06703859       1.07434003      -1.95509442
H        4.76378277       2.96691083       1.25286952
H        3.29695033       2.10778010       1.80037149
H        3.15607845       3.67958000       1.01767365
65
Properties=species:S:1:pos:R:3 energy=-1011524.6607487472 pbc="F F F"
O       -2.26544475      -3.28910463       0.56016920
O        0.36041632       1.05101375       1.95525732
O        2.31569439       0.46632144       2.85549363
O        0.61928679      -0.85521426      -0.88409769
O        1.98212290      -2.63617088      -0.91894682
O       -2.08144356       3.21682871       0.19752204
O       -2.20426737       2.01582010      -1.69052282
O        2.21615890       1.63777598      -0.73736877
O        4.40156694       2.10902159      -0.90932056
C       -4.11477358      -2.05262047      -0.38461511
C       -4.19378242      -1.15409089       0.86181096
C       -4.03828862       0.29787672       0.54512103
C       -3.17286602       1.17544724       1.04239707
C       -2.04902126       0.87341251       1.99916521
C       -0.74933666       0.45216181       1.28219329
C       -0.48212171      -1.06663542       1.23828826
C       -0.38367824      -1.60756213      -0.19914339
C       -1.69970209      -1.50403424      -0.96925086
C       -2.70364051      -2.62960154      -0.62166389
C        0.82804920      -1.20644092       1.95626089
C        1.28406110       0.15574831       2.31829267
C        1.52010089      -2.30402986       2.22532447
C       -2.75448479      -3.64545612      -1.77020674
C       -3.29871218       2.63049066       0.65708042
C       -1.64437151       2.83522700      -1.00805701
C       -0.37531925       3.55289929      -1.36735097
C        1.78942551      -1.46328507      -1.14022012
C        2.76634688      -0.51545035      -1.71900465
C        4.05036269      -0.81982861      -1.95091431
C        4.74106884      -2.11221791      -1.73224384
C        2.27378476       0.89130702      -1.95824466
C        3.36461403       2.19188735      -0.30556693
C        3.16069972       2.91805327       0.98801024
H       -2.82653817      -4.06154641       0.69358155
H       -4.80302337      -2.89319482      -0.26095678
H       -4.42376570      -1.49661012      -1.26947644
H       -5.18515692      -1.27528010       1.30957240
H       -3.45620553      -1.49054175       1.58778815
H       -4.77871219       0.66291550      -0.15685229
H       -2.34211889       0.10573651       2.71637208
H       -1.81432792       1.78342804       2.55528658
H       -0.73662330       0.85954031       0.26648711
H       -1.26272481      -1.63645884       1.74239815
H       -0.05765201      -2.65321198      -0.15913261
H       -1.46136795      -1.56092029      -2.03186742
H       -2.15206550      -0.52983030      -0.79444899
H        1.17577075      -3.28423779       1.94494733
H        2.46775584      -2.22944630       2.73142154
H       -3.43343537      -4.46355524      -1.53105383
H       -1.76232026      -4.05821995      -1.93754759
H       -3.09881164      -3.17005921      -2.68408448
H       -4.06331747       2.74922499      -0.11787403
H       -3.56985770       3.22746172       1.53324219
H       -0.27904155       3.61385043      -2.44739881
H        0.46388307       2.98238130      -0.97065836
H       -0.36554264       4.54243833      -0.92095461
H        4.68372083      -0.02735884      -2.33384296
H        5.14870914      -2.46603645      -2.67921846
H        4.07689121      -2.86251072      -1.31977453
H        5.58289925      -1.95298174      -1.05868073
H        2.94791290       1.40702041      -2.64996567
H        1.25315976       0.89285465      -2.34400530
H        2.20716296       3.43817221       0.98895293
H        3.98179987       3.60829090       1.15457457
H        3.13991180       2.18505923       1.79583088
65
Properties=species:S:1:pos:R:3 energy=-1011524.6569921047 pbc="F F F"
O       -2.26081883      -3.29844136       0.58066700
O        0.32106684       1.07167403       1.95375898
O        2.27431509       0.51190724       2.87437486
O        0.61292304      -0.85412426      -0.87291015
O        1.98898785      -2.62436404      -0.89992035
O       -2.10840917       3.22137623       0.21529754
O       -2.12548563       2.04199011      -1.69008198
O        2.24871936       1.63743421      -0.70744397
O        4.43548849       2.07564732      -0.93822614
C       -4.11203358      -2.08943837      -0.39543893
C       -4.20889834      -1.17615326       0.83881388
C       -4.05747128       0.27325914       0.50787368
C       -3.20279699       1.16033907       1.00691744
C       -2.08739126       0.87334270       1.97795789
C       -0.77755157       0.45707779       1.27647892
C       -0.49611321      -1.05945030       1.24705627
C       -0.38468860      -1.61097042      -0.18531811
C       -1.69738295      -1.52572808      -0.96350973
C       -2.69379811      -2.65667592      -0.61271610
C        0.81117172      -1.18101745       1.97344210
C        1.25033315       0.18803817       2.33039109
C        1.51364629      -2.26940289       2.25268795
C       -2.72433695      -3.68597625      -1.74992166
C       -3.33603353       2.61224864       0.61145317
C       -1.60838459       2.85875229      -0.97142634
C       -0.33016817       3.59236072      -1.25832129
C        1.78523462      -1.45569849      -1.13353036
C        2.74818358      -0.50772381      -1.73535805
C        4.01787728      -0.82100913      -2.02672724
C        4.70466194      -2.12306555      -1.85806221
C        2.25919295       0.90604625      -1.93874328
C        3.41718932       2.17104592      -0.30521013
C        3.26087199       2.89549460       0.99617141
H       -2.81535527      -4.07500769       0.71735466
H       -4.79392968      -2.93438265      -0.26658368
H       -4.41856951      -1.54765100      -1.28995192
H       -5.20431368      -1.29729279       1.27750743
H       -3.47725564      -1.50023795       1.57635247
H       -4.79266173       0.62752583      -0.20513815
H       -2.38215665       0.10849288       2.69743393
H       -1.86534235       1.78924497       2.52960407
H       -0.75983752       0.85475799       0.25713231
H       -1.27440864      -1.63223062       1.75148400
H       -0.04847479      -2.65293417      -0.13520255
H       -1.45246442      -1.58899590      -2.02427929
H       -2.15823696      -0.55377996      -0.79862296
H        1.18198184      -3.25493192       1.97563509
H        2.45724599      -2.18159244       2.76419615
H       -3.06480881      -3.22461101      -2.67241785
H       -3.39751833      -4.50786714      -1.50752331
H       -1.72672265      -4.09089054      -1.90348893
H       -4.06250579       2.71572611      -0.20140523
H       -3.66358566       3.20383382       1.47209979
H       -0.34070791       4.56527096      -0.77694594
H       -0.19398675       3.69160116      -2.33127696
H        0.49597098       3.00920401      -0.85233450
H        4.64196112      -0.02909506      -2.42576959
H        4.04486326      -2.88034714      -1.45152684
H        5.55972132      -1.98688585      -1.19604724
H        5.09312411      -2.45235466      -2.82175646
H        2.91404012       1.42541287      -2.64606588
H        1.22633224       0.92099985      -2.29004756
H        4.12925429       3.52249614       1.17242729
H        3.17750711       2.16047011       1.79776949
H        2.34965636       3.48704333       0.99524645
65
Properties=species:S:1:pos:R:3 energy=-1011524.8627582021 pbc="F F F"
O       -2.43128488      -3.00292385       0.79201633
O        0.67628070       0.78979390       2.55404902
O        2.40703497      -0.09340960       3.64574248
O        0.96543449      -0.85056700      -0.45266212
O        1.57833039      -2.52458896      -1.80510215
O       -2.43029155       3.10448631      -0.91449015
O       -0.96094502       1.60208673      -1.70226576
O        3.04036011       1.40165949      -0.39702594
O        1.37707863       2.78828884       0.19541256
C       -3.86305025      -1.60722115      -0.48342402
C       -3.99565001      -0.58471064       0.65738696
C       -3.44854975       0.76322756       0.30774150
C       -2.49142172       1.45079785       0.91996293
C       -1.69377945       0.97774544       2.10379413
C       -0.34903991       0.39341362       1.64059183
C       -0.28823388      -1.14545504       1.54053660
C       -0.10133396      -1.62751391       0.09313080
C       -1.34216601      -1.43102929      -0.78191701
C       -2.53223347      -2.38193090      -0.48434647
C        0.89238840      -1.49932267       2.39541037
C        1.43503067      -0.23292100       2.94999992
C        1.42662859      -2.68460154       2.65017991
C       -2.58290363      -3.47406139      -1.56011480
C       -2.04414676       2.80874323       0.42706816
C       -1.78699895       2.45896651      -1.88644379
C       -2.22393182       2.95075483      -3.24184896
C        1.70684212      -1.38281564      -1.42553746
C        2.66830418      -0.38544981      -1.95421778
C        3.75522807      -0.71587762      -2.66028450
C        4.21290077      -2.07278311      -3.04752618
C        2.38690678       1.05969412      -1.62637281
C        2.44794524       2.28060642       0.41610193
C        3.30194855       2.55372069       1.62120976
H       -1.83525100      -3.75516947       0.71760532
H       -4.66040974      -2.34493506      -0.37801587
H       -3.98156778      -1.11076543      -1.44727937
H       -5.06174282      -0.45677455       0.86741003
H       -3.52734583      -0.99808667       1.54690011
H       -3.93209523       1.21702459      -0.55029869
H       -2.24754340       0.24932221       2.69462216
H       -1.46778374       1.83355857       2.74322540
H       -0.08368741       0.83983202       0.67657693
H       -1.19976920      -1.60528918       1.92834823
H        0.20889849      -2.68143207       0.08637515
H       -1.02982358      -1.58113511      -1.81699127
H       -1.65363590      -0.39369474      -0.68818430
H        1.02819434      -3.60218971       2.25149313
H        2.29549938      -2.75347426       3.28255064
H       -2.81606425      -3.04458701      -2.53026355
H       -3.34741896      -4.20856601      -1.31265415
H       -1.61948690      -3.97722613      -1.63013459
H       -2.50264348       3.59970983       1.02806046
H       -0.95333829       2.88634535       0.50448965
H       -1.54651049       3.74419515      -3.55207017
H       -3.23142562       3.35108891      -3.19019066
H       -2.16268973       2.14265885      -3.96488999
H        4.39842550       0.09239401      -2.99146467
H        4.21794338      -2.15367345      -4.13453902
H        3.56995388      -2.84446092      -2.64018934
H        5.23692437      -2.22229342      -2.70621259
H        2.80197726       1.70608584      -2.40844480
H        1.31350026       1.25192451      -1.53417076
H        3.06786524       1.82763723       2.39853187
H        3.08483670       3.54683645       2.00340727
H        4.35245104       2.45538223       1.36537301
65
Properties=species:S:1:pos:R:3 energy=-1011523.9503579566 pbc="F F F"
O       -2.46802350      -2.93062805       0.77955571
O        0.72311055       0.74552717       2.38781257
O        2.55634569      -0.10736964       3.32397766
O        0.80114269      -0.88196024      -0.71126439
O        2.08148562      -2.67227433      -1.12263511
O       -2.49469805       3.16098473      -0.80800009
O       -1.08834053       1.65462543      -1.69907985
O        3.04290773       1.41464706      -0.34145646
O        1.31982218       2.78757692       0.09378196
C       -4.01465920      -1.53240287      -0.45651834
C       -4.09827756      -0.53504277       0.71232738
C       -3.53400990       0.81226618       0.38474036
C       -2.52052050       1.44332317       0.96729347
C       -1.66951308       0.89853063       2.08064524
C       -0.34605688       0.34170682       1.52784819
C       -0.25992242      -1.19353032       1.39974397
C       -0.21424346      -1.65251869      -0.06790418
C       -1.51345120      -1.39468508      -0.83117617
C       -2.69197055      -2.33104275      -0.48928517
C        1.01531012      -1.52539568       2.11897700
C        1.54597636      -0.26302224       2.68764074
C        1.63101779      -2.69184520       2.24622351
C       -2.79252033      -3.43766203      -1.54841778
C       -2.06611711       2.81012112       0.50679295
C       -1.89567561       2.53762591      -1.82465090
C       -2.36298972       3.09476565      -3.14478568
C        1.89713043      -1.47856697      -1.18131849
C        2.81148430      -0.47548607      -1.78468689
C        3.92129576      -0.80214172      -2.45728419
C        4.45649896      -2.15536289      -2.74432324
C        2.46235136       0.97848864      -1.57836427
C        2.39287419       2.32465485       0.38953986
C        3.18888975       2.69357654       1.60839131
H       -3.15664845      -3.59066521       0.92070709
H       -4.83654623      -2.24812786      -0.36296416
H       -4.13463718      -1.01029307      -1.40615471
H       -5.15381567      -0.39451051       0.96393822
H       -3.60152071      -0.97401514       1.57602577
H       -4.05128313       1.31594655      -0.42406816
H       -2.19629876       0.13581194       2.65224240
H       -1.41374681       1.71489759       2.75960237
H       -0.14476083       0.80371865       0.55463559
H       -1.10855250      -1.68738861       1.87452133
H        0.06089777      -2.71235858      -0.11099637
H       -1.28613239      -1.49786235      -1.89316054
H       -1.79475578      -0.35824777      -0.66765951
H        1.24137856      -3.60129871       1.82298841
H        2.56258987      -2.74841949       2.78355485
H       -1.85514831      -3.98689880      -1.59402498
H       -3.00020943      -3.01320097      -2.52647252
H       -3.59123059      -4.13652803      -1.30054006
H       -2.48793966       3.58622923       1.15251483
H       -0.97219854       2.86639958       0.54580014
H       -1.68131415       3.89046640      -3.43920600
H       -3.36172044       3.50829136      -3.04692503
H       -2.33563410       2.31824448      -3.90350048
H        4.51868585       0.01290691      -2.85250646
H        3.77779092      -2.93266662      -2.41359439
H        5.41043534      -2.27574386      -2.23065289
H        4.64815800      -2.25493680      -3.81237911
H        2.90092390       1.58650335      -2.37799414
H        1.38100147       1.14400030      -1.55394749
H        4.23521957       2.81620759       1.34393573
H        3.11787129       1.88940977       2.33973429
H        2.79017740       3.60498246       2.04301798
65
Properties=species:S:1:pos:R:3 energy=-1011525.2910195022 pbc="F F F"
O       -2.22221083      -2.89874936       0.33372734
O        0.39485709       0.45956921       3.22487256
O        2.00558308      -0.64411805       4.31045618
O        1.04350705      -0.47206774      -0.23496279
O        2.24929027      -2.19304384      -1.05288286
O       -0.98589567       3.08122155       0.83023523
O       -1.44868981       2.59874572      -1.30946851
O        2.25945097       1.08140329      -3.26774265
O        0.74075414      -0.56736831      -3.29684733
C       -3.74473977      -1.34810710      -0.72871724
C       -4.00193924      -0.62527510       0.60439335
C       -3.52765877       0.79191811       0.59210784
C       -2.65389622       1.38522393       1.40077982
C       -1.88789598       0.71583102       2.51034128
C       -0.46671345       0.28699421       2.09544264
C       -0.30968783      -1.17671541       1.63274068
C       -0.04650843      -1.33382586       0.12777689
C       -1.23628406      -0.97396915      -0.75993281
C       -2.36173217      -2.03189964      -0.78703295
C        0.83664299      -1.67384674       2.46560358
C        1.17462756      -0.60754198       3.44441351
C        1.48967041      -2.82499778       2.39926391
C       -2.25052594      -2.85636279      -2.07438345
C       -2.34818362       2.85280649       1.21153407
C       -0.65881019       2.89658987      -0.44835715
C        0.81763832       3.08791529      -0.65681438
C        2.09884657      -1.02004466      -0.84511933
C        3.08628304       0.03588990      -1.24204241
C        3.75432958       0.77504939      -0.36276471
C        3.65952042       0.67053117       1.11826579
C        3.24548859       0.19181240      -2.73323112
C        1.03672658       0.58227599      -3.49783284
C        0.10647654       1.63498642      -4.02084947
H       -2.81160832      -3.64983191       0.20059958
H       -4.50778407      -2.11965183      -0.86260015
H       -3.82746422      -0.64677110      -1.55879595
H       -5.08190795      -0.60292534       0.77869895
H       -3.54145832      -1.19945514       1.40666524
H       -3.99085852       1.39304949      -0.18145489
H       -2.43300568      -0.14491291       2.89745612
H       -1.76343271       1.42943293       3.32793631
H       -0.08842268       0.96029656       1.32023978
H       -1.20619297      -1.75889550       1.85424690
H        0.25818385      -2.36672832      -0.07124713
H       -0.84773185      -0.86452473      -1.77333390
H       -1.63145468      -0.00922271      -0.45263153
H        1.24360695      -3.59196986       1.68570445
H        2.30566185      -3.01468993       3.07643672
H       -2.38142742      -2.22027462      -2.94446241
H       -3.00800934      -3.63987024      -2.09938591
H       -1.26742762      -3.31723156      -2.12881228
H       -3.00357034       3.28292005       0.44767612
H       -2.46246080       3.39794727       2.15185909
H        1.24205665       3.65359189       0.16655685
H        1.00193613       3.58628028      -1.60395537
H        1.28520620       2.10374955      -0.69366305
H        4.45691304       1.51254856      -0.73289186
H        3.24920364       1.59061812       1.53430457
H        4.65313251       0.53801264       1.54374410
H        3.03485228      -0.16226208       1.42688363
H        4.20398252       0.65083109      -2.98030608
H        3.14784902      -0.78736316      -3.21454427
H        0.66763620       2.48559482      -4.39342563
H       -0.54548323       1.95596961      -3.20636382
H       -0.51709944       1.21245668      -4.80367484
65
Properties=species:S:1:pos:R:3 energy=-1011522.1249537898 pbc="F F F"
O       -2.10802262      -2.89741931       0.24058010
O        0.26708102       0.42940937       3.42468847
O        1.89890569      -0.62696385       4.52560744
O        1.14487094      -0.41079435       0.10991382
O        1.91344604      -1.56694218      -1.65673989
O       -2.22820503       3.12720687      -0.04429661
O       -0.04525547       2.60430808      -0.03384209
O        2.65094667       0.73778199      -3.32198907
O        0.41256229       0.59989467      -3.19924428
C       -3.59547251      -1.31871055      -0.82990602
C       -3.97671803      -0.68306320       0.51920306
C       -3.53373537       0.74095087       0.61800973
C       -2.70609480       1.30199993       1.49468806
C       -2.00529067       0.60490516       2.62634469
C       -0.55011269       0.24841143       2.26384359
C       -0.32800184      -1.20298958       1.78313962
C        0.03615787      -1.29556828       0.29531534
C       -1.10082969      -0.88331399      -0.63961334
C       -2.19094506      -1.96011986      -0.82759884
C        0.78964945      -1.68305558       2.66099705
C        1.08042962      -0.60733986       3.64648733
C        1.45018603      -2.83081287       2.62944657
C       -1.95675249      -2.68971673      -2.15606608