98
Properties=species:S:1:pos:R:3 energy=-1419106.4997160947 pbc="F F F"
C       -4.37841981       1.48829615      -0.29183087
N       -2.99853438       1.71620312      -0.69772727
N       -2.56129990       3.00564633      -0.38798797
C       -3.35192797       4.10939709      -0.89726348
C       -4.79467229       3.95579384      -0.41496518
C       -5.32643645       2.58152685      -0.82182558
C       -1.46868993       3.19679285       0.38206248
O       -1.04157881       4.29832935       0.66412478
C       -4.80463303       0.14276193      -0.86322502
O       -4.54827922      -0.20497141      -1.98546143
C       -0.81086001       1.90346164       0.86958601
C       -1.44024427       1.46175371       2.20019713
C       -1.30766980      -0.02119253       2.42255275
C       -0.07171570      -0.63217070       2.27956779
C        0.07040919      -2.00634857       2.42178688
C       -1.03688439      -2.77962777       2.76501137
C       -2.26351505      -2.16767682       2.93305697
C       -2.40892488      -0.80187987       2.74717851
O        1.26220500      -2.61197160       2.19940060
N        0.61662357       2.09105954       1.00017771
C        1.43434466       1.89982469      -0.04261138
O        1.02666275       1.57466946      -1.14832901
C        2.94017956       1.97581288       0.24482252
C        3.54274148       3.27255570      -0.30862908
C        2.80107757       4.48434568       0.25437865
N        3.51570741       0.80866630      -0.39968306
C        3.23366755      -0.42323065       0.05292990
O        2.82563874      -0.60871220       1.20093361
C        3.41095060      -1.55861348      -0.92838545
C        4.82015120      -1.63075278      -1.52372512
C        5.87911422      -1.84544180      -0.43718606
C        6.23748656      -0.55281704       0.26747674
O        6.51039522       0.45069216      -0.34565741
C        2.34636593      -1.42998578      -2.06281726
O        2.50784996      -0.22018882      -2.75960044
C        0.90275003      -1.63127483      -1.54458217
C       -0.10577921      -1.05908547      -2.54558717
C        0.56795021      -3.12889023      -1.30791306
O        1.46328596      -3.77706544      -0.43189103
C       -0.83975237      -3.22241140      -0.79566735
C       -1.84224694      -3.85902039      -1.39567114
C       -3.21220588      -3.87462965      -0.91491650
C       -3.75526593      -2.93717459      -0.14158868
C       -5.17881298      -2.94366986       0.31649517
C       -5.99317923      -1.84004880      -0.36955100
O       -5.52148157      -0.54517739       0.01500551
H       -7.03979378      -1.88517742      -0.05765279
C        6.23802692      -0.61691575       1.76878729
C        5.02893314       3.35071495       0.02656980
H       -5.91959358      -1.93388300      -1.45718800
H       -5.21933025      -2.77894999       1.39576954
H       -5.65101610      -3.89986324       0.08667459
H       -3.17064666      -2.08335001       0.17108868
H       -3.82273333      -4.70262910      -1.25403309
H       -1.65689562      -4.40540933      -2.31142629
H       -1.00921906      -2.72011813       0.14735598
H        0.66488317      -3.66275228      -2.26029218
H        1.27583594      -3.49858214       0.48218875
H        0.79106371      -1.10063151      -0.59138676
H        0.08176035      -1.46504064      -3.53686545
H       -0.03602671       0.02326641      -2.59254321
H       -1.11889183      -1.31739165      -2.24791806
H        2.56529787      -2.22103125      -2.79248358
H        1.94069641       0.45631178      -2.34455021
H        3.20945426      -2.49567487      -0.40211397
H        4.84381333      -2.46934080      -2.22173550
H        5.05594201      -0.72427170      -2.08334125
H        5.54292283      -2.59667972       0.27723463
H        6.79817824      -2.20401957      -0.90890189
H        6.63475014       0.30244121       2.19164444
H        6.82223485      -1.46799626       2.11046854
H        5.21176553      -0.75640236       2.10605928
H        3.73506251       0.90014676      -1.38394091
H        3.12451092       1.89453456       1.32105512
H        3.41563846       3.25665807      -1.39685627
H        5.47580916       4.21564508      -0.45658573
H        5.55527747       2.45959931      -0.30368177
H        5.16632112       3.45082647       1.10147899
H        2.89025346       4.51664155       1.33888815
H        1.74503995       4.46739245      -0.00606373
H        3.23330226       5.39796493      -0.14571617
H        0.95923682       2.52777659       1.84169050
H       -0.96525153       1.13351341       0.10744683
H       -0.96067391       2.01265441       3.01471302
H       -2.49631675       1.73400840       2.20081296
H        0.80336891      -0.05103861       2.03628638
H        1.92479152      -1.93247689       1.93073901
H       -0.92042333      -3.84531164       2.88173857
H       -3.12117706      -2.76819290       3.19736387
H       -3.38146702      -0.34474327       2.85816144
H       -2.91711082       1.53994503      -1.70162714
H       -2.89903313       5.03075762      -0.53020129
H       -3.31632628       4.10012070      -1.99333532
H       -4.82267720       4.05356940       0.67227647
H       -5.41360505       4.74270160      -0.84609626
H       -6.32982885       2.42286486      -0.42565065
H       -5.36964764       2.50822741      -1.91174257
H       -4.42161174       1.45226581       0.80122838
98
Properties=species:S:1:pos:R:3 energy=-1419105.7096702652 pbc="F F F"
C       -4.39391166       1.50175766      -0.26606425
N       -3.02980629       1.79818094      -0.68036912
N       -2.62938119       3.08283681      -0.30751081
C       -3.46385945       4.18448865      -0.74672601
C       -4.89270787       3.95781741      -0.25132221
C       -5.38654057       2.58945546      -0.72125155
C       -1.55290025       3.26810760       0.48800392
O       -1.16932347       4.36616595       0.83691276
C       -4.78897342       0.17606074      -0.90253753
O       -4.52826631      -0.10988946      -2.04110653
C       -0.86536179       1.97189263       0.92188414
C       -1.47688310       1.49364258       2.25056619
C       -1.35951481       0.00403416       2.42926691
C       -0.12523781      -0.61349570       2.29803696
C        0.00219447      -1.99190721       2.41426009
C       -1.11976375      -2.76297522       2.71305374
C       -2.34549216      -2.14558162       2.86453062
C       -2.47457502      -0.77467714       2.70845227
O        1.19256827      -2.60682442       2.21446089
N        0.56150348       2.16839938       1.04256218
C        1.39205510       1.88484373       0.03128363
O        0.99462028       1.49837067      -1.05842849
C        2.89311211       1.95165307       0.34938518
C        3.50998221       3.28615359      -0.10196406
C        4.91800910       3.43180294       0.46920206
N        3.49341717       0.80598710      -0.30292929
C        3.22435848      -0.43258794       0.13623151
O        2.80290600      -0.63250494       1.27731007
C        3.44421434      -1.55702009      -0.84902216
C        4.86693701      -1.58733810      -1.41654916
C        5.91629257      -1.71101329      -0.30674878
C        6.22565662      -0.37412665       0.33566343
O        6.46155621       0.61018366      -0.32264632
C        2.40504095      -1.44209953      -2.00775558
O        2.55949431      -0.22153615      -2.68791600
C        0.95110950      -1.66894728      -1.53217766
C       -0.03353521      -1.12268192      -2.57104114
C        0.63236892      -3.16951489      -1.29168694
O        1.51207450      -3.79691702      -0.38586905
C       -0.78752092      -3.27338937      -0.81635044
C       -1.77363648      -3.90870451      -1.44411557
C       -3.15633671      -3.92029238      -1.00031044
C       -3.71965881      -2.97463206      -0.25180689
C       -5.15400905      -2.97750118       0.17086374
C       -5.94279747      -1.85074344      -0.50663936
O       -5.48816364      -0.57009255      -0.05828784
H       -7.00070870      -1.90865249      -0.23681379
C        6.22960998      -0.37010545       1.83851288
C        3.52885933       3.42390771      -1.62335328
H       -5.82872826      -1.90518835      -1.59347799
H       -5.21952579      -2.83751150       1.25253859
H       -5.62835153      -3.92417925      -0.09178061
H       -3.14352093      -2.11766779       0.06812787
H       -3.75779688      -4.75160280      -1.34753241
H       -1.56479547      -4.45520924      -2.35477516
H       -0.98404460      -2.77259120       0.12222353
H        0.76165220      -3.71013478      -2.23638151
H        1.29461234      -3.51157572       0.51964076
H        0.79981524      -1.13093727      -0.58873191
H        0.19480143      -1.53217532      -3.55230754
H        0.01720853      -0.03970848      -2.62385518
H       -1.05131733      -1.39644162      -2.30576582
H        2.65749081      -2.22204939      -2.73839528
H        1.97042431       0.43523483      -2.27214465
H        3.25388160      -2.50189768      -0.33290739
H        4.94065440      -2.44845432      -2.08287080
H        5.07000849      -0.69190235      -2.00622093
H        5.59445226      -2.43514886       0.44149611
H        6.85333465      -2.06352135      -0.74684497
H        5.21226660      -0.54647223       2.18525739
H        6.58108499       0.58526541       2.21962879
H        6.85600129      -1.17517477       2.21543140
H        3.72258582       0.91146277      -1.28277818
H        3.03553084       1.82845881       1.42908540
H        2.87146092       4.07737873       0.31030415
H        2.56675613       3.15531162      -2.05284493
H        4.30242350       2.79641729      -2.06013540
H        3.74672549       4.45405940      -1.89411470
H        5.54901065       2.61493459       0.12799094
H        4.89739487       3.42603106       1.55711498
H        5.35799320       4.36970197       0.14044788
H        0.90172911       2.63296754       1.87020465
H       -1.01888294       1.21965133       0.14257543
H       -0.97669135       2.01484017       3.07201303
H       -2.52943267       1.77874603       2.27885033
H        0.75946119      -0.03312560       2.08874012
H        1.87051866      -1.93267034       1.97018918
H       -1.01349586      -3.83174386       2.81045946
H       -3.21387158      -2.74460006       3.09499673
H       -3.44546324      -0.31190373       2.80992582
H       -2.95863542       1.67818261      -1.69303330
H       -3.03560972       5.10031291      -0.33857162
H       -3.44610879       4.23261558      -1.84208100
H       -4.90508526       3.99828748       0.83985845
H       -5.54436582       4.74485512      -0.63096593
H       -6.37680169       2.37669316      -0.31744753
H       -5.44746313       2.57228478      -1.81269263
H       -4.41632664       1.40562184       0.82384484
98
Properties=species:S:1:pos:R:3 energy=-1419105.3971929047 pbc="F F F"
C       -4.32574863       1.56046980      -0.21108128
N       -2.95697168       1.82177855      -0.63343187
N       -2.52223416       3.09845153      -0.27178644
C       -3.33181391       4.21781699      -0.71251724
C       -4.76204871       4.02878866      -0.20554075
C       -5.29329262       2.67089152      -0.66503809
C       -1.42430170       3.26088136       0.49803057
O       -0.99553674       4.35140619       0.81875229
C       -4.75300021       0.24289753      -0.84427472
O       -4.51936798      -0.04028391      -1.98950201
C       -0.76816411       1.95058103       0.93717375
C       -1.38097739       1.48799584       2.27031368
C       -1.29860784      -0.00478879       2.44441856
C       -0.08322240      -0.65295493       2.28742566
C        0.01177624      -2.03460559       2.39659923
C       -1.12346172      -2.77826863       2.71377388
C       -2.32980611      -2.13040359       2.89148042
C       -2.42735027      -0.75604443       2.74305627
O        1.18314710      -2.67759873       2.17368150
N        0.66296229       2.11715758       1.04541390
C        1.47207870       1.82079484       0.02003918
O        1.04915346       1.42930494      -1.05766337
C        2.97902175       1.85841527       0.31339021
C        3.65930477       3.15647750      -0.14908723
C        3.36665198       3.47243510      -1.61392909
N        3.53699063       0.70023210      -0.35228178
C        3.25162022      -0.53635532       0.07804847
O        2.82164483      -0.73821268       1.21503640
C        3.46618645      -1.64962685      -0.91955837
C        4.88807513      -1.66533000      -1.49116298
C        5.94249868      -1.77451462      -0.38483351
C        6.22084176      -0.44325453       0.28752810
O        6.41341772       0.56821114      -0.34137377
C        2.41987626      -1.51054359      -2.06965327
O        2.58356896      -0.28324876      -2.73636469
C        0.96610830      -1.71846300      -1.58512366
C       -0.01579337      -1.16162530      -2.62105481
C        0.62381405      -3.21217428      -1.33526972
O        1.50198625      -3.85243562      -0.43689683
C       -0.79139075      -3.28687542      -0.84050878
C       -1.80027647      -3.90107059      -1.45288412
C       -3.17526051      -3.88619424      -0.98546050
C       -3.70869508      -2.93107913      -0.22706701
C       -5.13441713      -2.91209231       0.22380667
C       -5.92094616      -1.77252010      -0.43446766
O       -5.44253542      -0.49933415       0.01071293
H       -6.97439287      -1.81860483      -0.14548459
C        6.25456469      -0.48803091       1.79071495
C        3.21634464       4.31734126       0.74012640
H       -5.82763474      -1.82355165      -1.52343909
H       -5.17567605      -2.77366959       1.30685040
H       -5.62819800      -3.85099793      -0.03087698
H       -3.11286633      -2.08374974       0.08225121
H       -3.79749292      -4.70680512      -1.32149505
H       -1.61742217      -4.45130240      -2.36688861
H       -0.96386529      -2.78225916       0.10080518
H        0.73132190      -3.75852102      -2.27941648
H        1.29095289      -3.56887697       0.47064168
H        0.82807504      -1.17356578      -0.64377519
H        0.19958898      -1.58017423      -3.60147634
H        0.05317716      -0.07999786      -2.68012245
H       -1.03625110      -1.41695006      -2.34784716
H        2.65627291      -2.28517140      -2.81110233
H        2.00883520       0.37626186      -2.30395276
H        3.27669080      -2.60161186      -0.41670507
H        4.97065443      -2.52671770      -2.15623994
H        5.07901390      -0.76894963      -2.08342047
H        5.64254211      -2.52095054       0.35068210
H        6.88838689      -2.09352888      -0.83182433
H        6.90857356      -1.28788323       2.12982371
H        5.24884532      -0.70074521       2.15059811
H        6.58935940       0.46347938       2.19571997
H        3.79576060       0.80926979      -1.32364738
H        3.13758205       1.72538924       1.39002248
H        4.73761375       3.00191651      -0.03137529
H        3.42982374       4.11164258       1.78736772
H        2.15011885       4.50588948       0.62776482
H        3.74900090       5.22247631       0.46000574
H        2.29998417       3.61255395      -1.77280845
H        3.71111267       2.68023705      -2.27400872
H        3.87853912       4.38869706      -1.89765526
H        1.02271292       2.58029654       1.86539510
H       -0.94364827       1.19922619       0.16143497
H       -0.86070360       1.99461430       3.08843266
H       -2.42580536       1.79913444       2.30782867
H        0.81165035      -0.09458078       2.06238733
H        1.87224869      -2.01869361       1.91994173
H       -1.04272761      -3.84979622       2.80500571
H       -3.20829390      -2.70811212       3.13766061
H       -3.38404006      -0.26935475       2.86540893
H       -2.89454481       1.69408120      -1.64587564
H       -2.87828772       5.12539832      -0.31325422
H       -3.32108684       4.25919354      -1.80832782
H       -4.76542300       4.07482765       0.88549906
H       -5.39680464       4.82988123      -0.58441442
H       -6.28598878       2.48554993      -0.25376845
H       -5.36187957       2.64968231      -1.75594542
H       -4.34503252       1.46677481       0.87907209
98
Properties=species:S:1:pos:R:3 energy=-1419105.0794672652 pbc="F F F"
C       -4.35068925       1.30624345      -0.55509216
N       -2.96303967       1.66739089      -0.80859819
N       -2.69653406       3.00270736      -0.49911731
C       -3.52897537       4.00500898      -1.13558608
C       -4.99503809       3.71410967      -0.81337844
C       -5.33563383       2.28246054      -1.22737488
C       -1.72281912       3.32536115       0.37846565
O       -1.43713918       4.47193484       0.66058393
C       -4.56924606      -0.08834761      -1.12634604
O       -4.14373248      -0.43303983      -2.19689454
C       -1.00519599       2.11905091       0.98940600
C       -1.73785459       1.65604227       2.25868020
C       -1.50336740       0.19565447       2.53863383
C       -0.20915056      -0.29944970       2.54891814
C        0.04153170      -1.65224709       2.73670773
C       -1.02197274      -2.52050882       2.97458206
C       -2.31028651      -2.02241348       2.99350105
C       -2.55864762      -0.67903462       2.75920722
O        1.30235681      -2.14470770       2.65636689
N        0.37478935       2.45273561       1.26445693
C        1.31062448       2.32751495       0.31610998
O        1.05453299       1.93820368      -0.81423559
C        2.76401346       2.57344809       0.74465689
C        3.28168319       3.90116143       0.17971019
C        2.42640435       5.05936723       0.69006493
N        3.52717283       1.44976505       0.22600933
C        3.27283367       0.20806011       0.68866168
O        2.72073576       0.02243098       1.77007309
C        3.69893655      -0.92405278      -0.21403318
C        5.17042310      -0.79720095      -0.64355346
C        5.87449424      -2.15870619      -0.69167116
C        5.37199705      -3.01575373      -1.84205151
O        5.51492151      -2.68054453      -2.99170098
C        2.76149017      -0.94937678      -1.46394704
O        2.87308114       0.26179294      -2.17091880
C        1.29730713      -1.29604874      -1.10885494
C        0.35986905      -0.85412425      -2.23710635
C        1.09717612      -2.81547406      -0.86778069
O        1.95429575      -3.34445086       0.12361004
C       -0.34011912      -3.05215771      -0.50937557
C       -1.20153230      -3.78838127      -1.20664995
C       -2.60969616      -3.93164058      -0.88281539
C       -3.32431403      -3.03817329      -0.20251245
C       -4.78420704      -3.17423881       0.09131840
C       -5.61437989      -2.16825088      -0.71541529
O       -5.31835061      -0.82593946      -0.31805162
H       -6.68106864      -2.31088430      -0.52429372
C        4.70438526      -4.29785966      -1.43579659
C        4.74587029       4.10400023       0.55991052
H       -5.40543017      -2.27412512      -1.78422564
H       -4.96473806      -2.99382345       1.15359292
H       -5.13432323      -4.17593954      -0.16192460
H       -2.86270035      -2.12634340       0.14984626
H       -3.09544023      -4.82072413      -1.26591841
H       -0.86229021      -4.32021411      -2.08614743
H       -0.66378875      -2.56214252       0.39906830
H        1.35678031      -3.35203245      -1.78754245
H        1.63631923      -3.06633780       1.00186988
H        1.01828033      -0.76425544      -0.19095829
H        0.71441125      -1.24341464      -3.18852101
H        0.30953057       0.22866826      -2.29992519
H       -0.64608896      -1.22567377      -2.05903094
H        3.14905208      -1.71918730      -2.14182961
H        2.18024346       0.87307359      -1.85859433
H        3.55452182      -1.85669998       0.33482907
H        5.22487991      -0.33420574      -1.63077775
H        5.70436200      -0.16094034       0.06638324
H        6.94002870      -1.98440904      -0.86094719
H        5.74858102      -2.67804280       0.25810741
H        3.81309118      -4.07268934      -0.85050310
H        5.37576722      -4.87969756      -0.80800843
H        4.42802898      -4.87773091      -2.31258999
H        3.79639897       1.50809033      -0.75014931
H        2.84508514       2.55968309       1.83644766
H        3.19583180       3.85220574      -0.91161269
H        5.35704351       3.27568180       0.21144968
H        4.84894345       4.17656447       1.64053269
H        5.12330730       5.02184746       0.11663756
H        2.78944207       5.99709036       0.27725594
H        2.48081376       5.12437016       1.77531212
H        1.38431547       4.94361223       0.40047243
H        0.58290875       2.92967500       2.12782172
H       -0.99910868       1.31517259       0.24684725
H       -1.39912588       2.26479689       3.10209809
H       -2.80682283       1.83472737       2.13676920
H        0.63005733       0.35823857       2.39055666
H        1.92186690      -1.40392363       2.45698107
H       -0.82391209      -3.56936736       3.12856995
H       -3.13353879      -2.69650267       3.17774964
H       -3.57520537      -0.31350147       2.75123703
H       -2.74667653       1.47517954      -1.78932427
H       -3.21654170       4.97764105      -0.75464779
H       -3.36577111       3.97130407      -2.21950806
H       -5.15827509       3.83524942       0.25952631
H       -5.63584495       4.42154334      -1.33973863
H       -6.35712695       2.03033159      -0.94125068
H       -5.24487812       2.17868800      -2.31187710
H       -4.51767879       1.28992237       0.52644042
98
Properties=species:S:1:pos:R:3 energy=-1419105.5529055072 pbc="F F F"
C       -4.60907194       1.82638558       0.01184409
N       -3.31269853       2.22104065      -0.53113919
N       -2.83887892       3.40080475       0.04483177
C       -3.70194066       4.56170905      -0.05757534
C       -5.05695613       4.22911936       0.57030312
C       -5.63436959       2.96978649      -0.07736383
C       -1.69713094       3.41072561       0.76843699
O       -1.24178829       4.42397212       1.26168241
C       -5.07611719       0.63618754      -0.81715469
O       -5.23097467       0.69089719      -2.00942951
C       -1.03374571       2.04581586       0.93910785
C       -1.43874200       1.48619281       2.32001363
C       -1.27152281      -0.00578998       2.38872934
C       -0.00887285      -0.56942843       2.27863448
C        0.15725958      -1.94842931       2.29039954
C       -0.95042383      -2.77617109       2.46330291
C       -2.20409881      -2.21352599       2.59310356
C       -2.37189734      -0.83955716       2.53846766
O        1.37561783      -2.51759831       2.11773369
N        0.39824468       2.17576208       0.82668432
C        1.08212602       1.61589745      -0.18732419
O        0.54863454       0.96978536      -1.06851245
C        2.60555503       1.80280201      -0.12765917
C        3.02631265       3.05747066      -0.91419021
C        4.46989954       3.42471567      -0.58111199
N        3.22012136       0.60215890      -0.64478990
C        3.26490030      -0.51930603       0.06942323
O        2.98689142      -0.55098800       1.27167022
C        3.71436029      -1.76775122      -0.67339943
C        5.23200809      -1.73323976      -0.90216239
C        5.99155923      -1.65197947       0.42252128
C        6.04521191      -0.23775040       0.96696620
O        6.15910451       0.72337526       0.24663861
C        2.95970889      -1.96531380      -2.00189947
O        3.38855851      -0.95006056      -2.89547659
C        1.42409715      -1.98180841      -1.80247765
C        0.68244788      -1.57302407      -3.07691075
C        0.92038467      -3.38279923      -1.36899883
O        1.67997193      -3.95807879      -0.33089024
C       -0.52524119      -3.27339752      -0.97726617
C       -1.52241841      -3.96511960      -1.52376086
C       -2.91876734      -3.87227682      -1.13654450
C       -3.48948256      -2.85087531      -0.50101567
C       -4.93041301      -2.82657942      -0.09923498
C       -5.68803695      -1.64447680      -0.70547377
O       -5.28082493      -0.43108218      -0.06307200
H       -6.76497324      -1.75705047      -0.54062148
C        5.96101217      -0.13195652       2.46338773
C        2.84157385       2.86611567      -2.41920243
H       -5.49585421      -1.55805273      -1.77931872
H       -5.00222884      -2.74555538       0.98848646
H       -5.42537158      -3.74703108      -0.41287771
H       -2.91839643      -1.97105571      -0.24230188
H       -3.53000854      -4.72377568      -1.41231485
H       -1.30277197      -4.67907985      -2.30801721
H       -0.72116846      -2.58906898      -0.16336158
H        1.03522547      -4.07355167      -2.21404159
H        1.45146651      -3.53057394       0.51483833
H        1.15878937      -1.26022108      -1.02498316
H        0.82854003      -0.51521715      -3.27912445
H       -0.38363017      -1.73081017      -2.93670097
H        1.00363661      -2.17121763      -3.93034872
H        3.26221998      -2.94351952      -2.41156552
H        2.87645380      -1.02402714      -3.70722685
H        3.48348074      -2.62904555      -0.04003704
H        5.51707505      -2.64029932      -1.43777960
H        5.49461299      -0.87254760      -1.51867961
H        5.55456971      -2.32523748       1.16014269
H        7.03108032      -1.95296013       0.26154815
H        6.24319990       0.86394938       2.79473606
H        6.58603686      -0.88173530       2.94117268
H        4.92496677      -0.32095079       2.74332695
H        3.33904520       0.51383065      -1.64759227
H        2.91454980       1.90412204       0.91907372
H        2.36637415       3.87037760      -0.58656020
H        1.87401842       2.41790784      -2.63347270
H        3.62562333       2.23357861      -2.82944077
H        2.89281661       3.82888073      -2.92230238
H        4.80544163       4.24257157      -1.21380783
H        5.12455195       2.57075907      -0.73168699
H        4.55711738       3.73733128       0.45697106
H        0.84810700       2.80716330       1.47212246
H       -1.35775672       1.37049877       0.14329148
H       -0.82657045       1.97728107       3.08058217
H       -2.48089174       1.74621884       2.51315285
H        0.86453368       0.05491974       2.16817878
H        2.04583259      -1.81415866       1.93378213
H       -0.81005772      -3.84534626       2.48275292
H       -3.06066173      -2.85692787       2.72798664
H       -3.36280514      -0.41684206       2.61892277
H       -3.40059465       2.33746827      -1.54250448
H       -3.20840818       5.38369031       0.46148526
H       -3.82721185       4.82273075      -1.11506126
H       -4.92238454       4.06195362       1.64116439
H       -5.74057878       5.06787332       0.43824277
H       -6.56162489       2.67616632       0.41594838
H       -5.85142804       3.15702831      -1.13226891
H       -4.46394998       1.51473589       1.05060625
98
Properties=species:S:1:pos:R:3 energy=-1419103.9163283953 pbc="F F F"
C       -4.38036492       1.30583883      -0.52454605
N       -3.01587454       1.73706305      -0.79269614
N       -2.79794740       3.06824322      -0.43186121
C       -3.68608815       4.05910927      -1.00837956
C       -5.13092488       3.69350470      -0.66618489
C       -5.42170993       2.26667996      -1.13161130
C       -1.84399509       3.39374335       0.46784009
O       -1.61524616       4.53769439       0.80549429
C       -4.55856458      -0.07026291      -1.15178009
O       -4.12875563      -0.35803277      -2.23733360
C       -1.08320242       2.19286764       1.03398851
C       -1.79108207       1.69588447       2.30702986
C       -1.56273134       0.22720429       2.54231968
C       -0.26978744      -0.27144915       2.55689710
C       -0.02606683      -1.62956562       2.71562604
C       -1.09604919      -2.50028317       2.91317744
C       -2.38327880      -1.99977095       2.92353994
C       -2.62371562      -0.64982862       2.72249850
O        1.23325409      -2.12689283       2.65095990
N        0.29508635       2.54339150       1.29589707
C        1.24860163       2.32830207       0.38146227
O        1.00491728       1.86761879      -0.72471763
C        2.69600456       2.57664454       0.83329396
C        3.21916835       3.94421016       0.36431785
C        4.59349424       4.21015629       0.97484512
N        3.48726918       1.47761399       0.31186782
C        3.24682452       0.22913221       0.76133122
O        2.67982211       0.02764054       1.83248066
C        3.71217040      -0.89016773      -0.13828253
C        5.19159674      -0.73448068      -0.53017773
C        5.92176621      -2.08260356      -0.56508544
C        5.46078891      -2.94550725      -1.72829544
O        5.62685815      -2.60625434      -2.87363712
C        2.80833893      -0.92488694      -1.41199497
O        2.90829146       0.29778247      -2.10137112
C        1.34201973      -1.30345875      -1.10307101
C        0.43694652      -0.88967759      -2.26799677
C        1.16111205      -2.82447256      -0.85632165
O        1.99912219      -3.33400836       0.16097455
C       -0.28155256      -3.07715223      -0.53220465
C       -1.12274603      -3.81490722      -1.25209764
C       -2.53741701      -3.96483361      -0.96034253
C       -3.27150243      -3.07400617      -0.29749779
C       -4.73632238      -3.21778323      -0.03414480
C       -5.55381237      -2.19104998      -0.82695744
O       -5.28343727      -0.86134276      -0.37245237
H       -6.62387172      -2.35203746      -0.67130788
C        4.80266095      -4.23803427      -1.34027540
C        3.27382387       4.05368867      -1.15866479
H       -5.31499141      -2.25511559      -1.89282659
H       -4.93611500      -3.06598836       1.02925948
H       -5.08060891      -4.21284985      -0.31959927
H       -2.82277144      -2.15943809       0.06435325
H       -3.01025931      -4.85631894      -1.35393985
H       -0.76128870      -4.34204514      -2.12559799
H       -0.63010208      -2.59298565       0.37015543
H        1.45185016      -3.36311686      -1.76548324