70
Properties=species:S:1:pos:R:3 energy=-1087107.4520395182 pbc="F F F"
C       -1.32678040       1.67774151       1.81418813
C       -2.24539065       1.88762747       0.60769274
C        0.32129243       3.50212988       2.03032756
C        0.98681819       2.31217784      -2.53431391
C        4.26826804      -1.31820535      -1.01096758
C        0.98366829      -1.17428410       2.47376780
C        0.16776080      -2.23297994      -1.73938787
C       -4.09528706      -2.43486094      -1.38348749
C       -3.98600463       0.70436664       1.88354389
C        1.68515615       2.53548092      -0.22754836
C        0.58295426       1.67906959       0.40050079
C        4.20289994       1.10245674      -0.86681533
C        3.10615863       1.36084379      -1.90989853
C        3.29756681      -1.50615840       1.76695016
C        3.54567317      -0.15896150       1.07861446
C        0.10527813      -3.18883451       0.53155242
C        1.58036968      -2.86620632       0.76365620
C       -2.29534444      -0.81935234      -1.23648325
C       -1.55943401      -1.56033194      -0.11244641
C       -4.28892046       1.26435763      -0.49394157
C       -4.68856825      -0.18129923      -0.80583919
H       -1.71537108       2.16698150       2.70637048
H        1.40179321       3.60004827       2.11355627
H       -1.26721373       0.60087876       1.99023010
H       -0.10127852       3.58869481       3.03056897
H       -0.07481130       4.31602273       1.41417406
H        1.00010543       3.36767734      -2.81733170
H        1.33177204       3.56690572      -0.32140467
H        0.00797576       2.06774961      -2.12437947
H        1.19006035       1.70317466      -3.41198190
H        5.14573792       1.02422983      -1.41708690
H        4.01787884      -1.08130097      -2.04462286
H        4.28968792       1.89165156      -0.12118928
H        3.69929341      -2.19481545      -0.71627971
H        5.33717744      -1.54462660      -0.95375794
H        3.92622793      -2.30168317       1.36925526
H        0.96440498      -1.63096368       3.46884016
H        3.50826754      -1.36666040       2.83146217
H       -0.01754130      -1.17232297       2.05745345
H        1.32411085      -0.14354318       2.56532333
H        0.07604596      -4.20872877       0.12894191
H        0.41252223      -1.20024578      -1.98672136
H       -0.48876663      -3.14497701       1.44411388
H       -0.45087327      -2.67122593      -2.52677493
H        1.09316714      -2.80148831      -1.68431351
H       -2.05275686       0.23817698      -1.16278537
H       -3.77709148      -2.73135900      -2.38527138
H       -1.96769592      -1.17432194      -2.21581329
H       -5.17795217      -2.50875109      -1.30941229
H       -3.63631265      -3.09786828      -0.64807960
H       -3.73678510       1.71529386      -1.32218191
H       -3.48763888      -0.25272905       2.05109758
H       -5.22299627       1.81834682      -0.34927540
H       -5.04893636       0.52329087       1.73987875
H       -3.85545301       1.34168745       2.75817497
N       -0.01684224       2.20422598       1.49783372
N        2.01465951       2.05403206      -1.54355293
N        3.96100633      -0.16259770      -0.19504674
N        1.90266030      -1.88636745       1.61818230
N       -0.48784233      -2.29447260      -0.45028997
N       -3.71688123      -1.05986239      -1.12734090
N       -3.47079627       1.35165326       0.69710117
O       -1.84337253       2.46351118      -0.39378268
O        0.29450685       0.58149456      -0.04175315
O        3.25510568       0.92883826      -3.04224270
O        3.34812470       0.88075384       1.69914442
O        2.42953546      -3.49021948       0.13683433
O       -1.99335423      -1.53478933       1.03312029
O       -5.86355707      -0.50015857      -0.76286092
H        2.54155110       2.50157533       0.44566082
70
Properties=species:S:1:pos:R:3 energy=-1087106.0337878827 pbc="F F F"
C       -0.34574923       0.17218275      -1.03671721
C       -1.83468195       0.24760485      -1.33771789
C        0.44743478       1.68827526      -2.77827680
C        2.25129894       4.67332269       0.94394264
C        4.48332620       0.25207498       1.86927619
C        1.09997926      -1.35649175       1.82938320
C       -1.64188793      -3.41009485      -1.67008888
C       -5.32401626      -2.01368683       1.51433913
C       -2.20041548       1.29561770       0.87715169
C        2.04031202       3.10546886      -0.91335581
C        1.12780324       1.97238106      -0.43424858
C        4.49683486       1.76094412      -0.05653068
C        3.93492075       2.98262314       0.67780064
C        2.98550873      -1.70370919       0.30451877
C        3.22607901      -0.28446516      -0.21382107
C       -0.36067583      -3.50746785       0.43359454
C        0.98350321      -2.96939657      -0.07144379
C       -3.74952161      -2.02128419      -0.35011466
C       -2.41167036      -2.24032895       0.36268230
C       -4.05927370       0.85362205      -0.64661669
C       -4.84839808       0.07127172       0.41030921
H       -0.17537147      -0.04255295       0.01524007
H       -0.39791563       1.22404172      -3.28241813
H        0.08041701      -0.63028894      -1.64906170
H        1.37145585       1.26465003      -3.17993008
H        0.41872830       2.75984345      -2.96947981
H        2.93853777       4.93779174       1.74431595
H        2.65619095       2.73818378      -1.73501672
H        1.30534527       4.34417193       1.37787115
H        2.08122556       5.54120515       0.30474402
H        4.25978359       1.74329576      -1.11880879
H        4.77877918       1.19922756       2.31904237
H        5.58465134       1.79185504       0.07346203
H        5.35064612      -0.41521156       1.85594750
H        3.69747758      -0.17680106       2.48685228
H        3.24633803      -2.36730736      -0.52823330
H        0.01736639      -1.42939234       1.89959870
H        3.62039779      -1.93185887       1.16293620
H        1.35758569      -0.29648053       1.78908833
H        1.54428941      -1.79777700       2.72785109
H       -0.32385230      -4.59006767       0.26293143
H       -0.66862369      -3.75337499      -2.01614614
H       -0.51857797      -3.32109670       1.49436319
H       -1.95334074      -2.57882472      -2.30152155
H       -2.36311598      -4.22675721      -1.76458131
H       -3.59380689      -1.54037673      -1.31595028
H       -5.92516554      -2.81579695       1.08123461
H       -4.19223905      -3.00655129      -0.53876295
H       -5.96847983      -1.33068854       2.06289304
H       -4.58259248      -2.43665631       2.19363413
H       -4.26020170       0.47463629      -1.65180380
H       -2.20657399       0.47693770       1.60228501
H       -4.41027891       1.88932733      -0.58490082
H       -2.90272563       2.05639921       1.21365283
H       -1.20501259       1.72765570       0.83968293
N        0.33741302       1.41035218      -1.36430854
N        2.84893228       3.60274271       0.17154100
N        4.00808319       0.52350427       0.52971968
N        1.60637832      -2.00852217       0.64109138
N       -1.50319657      -2.98325186      -0.29525066
N       -4.66538370      -1.26495312       0.46468699
N       -2.62837567       0.81862405      -0.42081229
O       -2.27879633      -0.21712908      -2.38480025
O        1.10107167       1.65347491       0.74461022
O        4.50320090       3.37923470       1.68158688
O        2.79550793       0.06482283      -1.30211611
O        1.47295289      -3.45730606      -1.07699264
O       -2.20494637      -1.80585637       1.48696828
O       -5.62387824       0.65733885       1.14176680
H        1.43029848       3.93363380      -1.28498291
70
Properties=species:S:1:pos:R:3 energy=-1087103.8731375034 pbc="F F F"
C       -1.75056689       3.07018701       0.63310857
C       -2.12301633       1.67587053       1.15049029
C        0.41421652       3.72913292       1.67712937
C        1.79660855       2.46324864      -2.91572092
C        4.59339837      -1.34022782      -0.56914246
C        0.54152410      -1.51554191       2.09762161
C        0.27746642      -1.47768954      -1.60515638
C       -4.54234506      -1.83571888      -1.90430452
C       -4.43646829       2.17191970       0.46711527
C        1.79584533       2.55349630      -0.45822031
C        0.27914495       2.43209630      -0.40864906
C        4.32539049       1.07155075      -0.43081922
C        3.54169375       1.32922779      -1.72606433
C        2.98518424      -1.63773797       1.89654649
C        3.27098796      -0.27281344       1.26450221
C        0.27227831      -3.41912713      -0.07592774
C        1.63544734      -3.06373945       0.50507398
C       -2.44178946      -0.95403500      -1.03337773
C       -1.72252191      -2.08780046      -0.29810097
C       -3.80596313      -0.03986796       1.35926321
C       -4.56789731      -0.73228261       0.22765083
H       -2.16140668       3.20374316      -0.37148678
H        1.04805284       2.97120796       2.14096194
H       -2.14314508       3.84596238       1.29124914
H       -0.29773185       4.07674329       2.42109496
H        1.03199623       4.57665570       1.37022274
H        1.72258780       3.55312695      -2.92244077
H        2.06105907       3.61446738      -0.35275851
H        0.80404325       2.03472849      -3.04103583
H        2.44162417       2.13285634      -3.72668455
H        5.38219553       1.05575292      -0.71602121
H        4.61161937      -1.09829736      -1.63154133
H        4.17218582       1.84200192       0.32411865
H        4.02936501      -2.26032152      -0.43953745
H        5.62115525      -1.49519862      -0.22841759
H        3.74302075      -2.37851178       1.64374388
H       -0.33988903      -2.14211758       2.00478208
H        2.96368360      -1.48647972       2.97944812
H        0.32510353      -0.53386994       1.67463483
H        0.75364159      -1.38145477       3.15858585
H        0.46053648      -4.15208334      -0.87022630
H        1.34315643      -1.67907599      -1.52209102
H       -0.37482151      -3.87967450       0.67545450
H        0.11113539      -0.41316849      -1.44064131
H       -0.03480779      -1.73372117      -2.62216732
H       -2.06277840       0.00191945      -0.66777967
H       -4.41669858      -1.36231433      -2.87989599
H       -2.21773641      -1.00625684      -2.10072202
H       -5.60005159      -1.88327854      -1.65475715
H       -4.13634888      -2.84884736      -1.93520319
H       -4.48497473      -0.00449519       2.21812098
H       -4.44371703       3.13317942       0.98313996
H       -2.91374686      -0.60365751       1.63429810
H       -5.39971193       1.68919119       0.61723170
H       -4.30501468       2.34580043      -0.60444492
N       -0.31014902       3.18301370       0.55102152
N        2.38752682       2.02500863      -1.66503887
N        3.99447664      -0.22555887       0.13538083
N        1.68762349      -2.13025068       1.46967737
N       -0.42635397      -2.27082246      -0.62104474
N       -3.87406610      -1.05600251      -0.88351070
N       -3.40613330       1.30661629       0.99303665
O       -1.27594907       0.95222610       1.64188416
O       -0.38103647       1.75260328      -1.17955428
O        3.98905245       0.90520794      -2.77862613
O        2.82567832       0.74624636       1.78337531
O        2.64160299      -3.60745455       0.06731279
O       -2.29699649      -2.77115667       0.53143527
O       -5.76864626      -0.91153156       0.32522193
H        2.16293915       2.00993924       0.41952480
70
Properties=species:S:1:pos:R:3 energy=-1087104.153492027 pbc="F F F"
C       -1.41005676       1.95473142       0.51881011
C       -2.40931389       1.30677451      -0.43113464
C       -0.12695613       3.21547128      -1.15788311
C        2.95127439       2.93944636       2.46835830
C        4.81349853      -1.09298669       0.27558314
C        0.49301064      -0.70199089      -1.59594056
C       -0.99804477      -3.69057735      -0.88222846
C       -5.05974969      -2.86767057       0.68133942
C       -4.04742849       1.62269635       1.38079455
C        2.29528519       2.54131616       0.15831612
C        0.99677228       1.82564093       0.54757154
C        4.92799711       1.26833612      -0.33087740
C        4.52766072       1.83489884       1.03764692
C        2.78951414      -1.51501548      -1.80714443
C        3.44185896      -0.15428399      -1.57233799
C        0.13324128      -2.29801268       0.80953357
C        1.43481792      -2.33043989       0.01836014
C       -3.31673611      -1.97712186      -0.74782672
C       -2.15083938      -1.80606456       0.23378096
C       -4.70749121       0.63581727      -0.77166083
C       -5.28598679      -0.59579372      -0.06909251
H       -1.84252851       2.87915303       0.92029891
H       -0.11057324       4.24963060      -0.79576173
H       -1.23370217       1.25610922       1.34309227
H       -1.03175956       3.06007899      -1.74196164
H        0.72328485       3.04682232      -1.81429100
H        2.13640685       2.36862047       2.91334950
H        2.63118488       2.14788244      -0.80285491
H        2.64824505       3.98256572       2.35369251
H        3.82505252       2.88052687       3.11314445
H        4.66821497       1.93933577      -1.15131558
H        5.14972746      -0.65717966       1.21444586
H        6.01553574       1.14374100      -0.30268873
H        5.66261358      -1.59223040      -0.20015520
H        4.04282879      -1.82629193       0.50061246
H        2.57444561      -1.59757931      -2.87696366
H       -0.12055638      -1.23076189      -2.32935516
H        3.41199213      -2.34836092      -1.48599117
H        0.95010051       0.15028504      -2.09534461
H       -0.14596240      -0.32764922      -0.80608388
H        0.23478846      -3.04687843       1.60378495
H       -0.01722759      -4.15223932      -0.79246659
H        0.03206149      -1.31281487       1.27808347
H       -1.14264518      -3.39072330      -1.92228113
H       -1.74736825      -4.44146887      -0.61918053
H       -3.13662297      -1.24871968      -1.54295421
H       -5.21505770      -3.74001768       0.04293777
H       -3.33949427      -2.97668269      -1.18485187
H       -6.00299340      -2.58418745       1.14272661
H       -4.33430351      -3.11183724       1.45997532
H       -4.28978100       0.41401082      -1.75440666
H       -5.09448613       1.36977478       1.52973756
H       -5.53570960       1.34417414      -0.88624172
H       -3.92409230       2.69578198       1.54375393
H       -3.45175995       1.07146815       2.10933674
N       -0.12383941       2.26688588      -0.06971619
N        3.30539610       2.38521524       1.17622940
N        4.31673467      -0.02599583      -0.56841408
N        1.53391226      -1.55446778      -1.07459520
N       -1.05332547      -2.55788732       0.01563773
N       -4.58720429      -1.74874279      -0.10761912
N       -3.67073360       1.25007206       0.03545021
O       -2.10505799       0.89865280      -1.54333557
O        0.97186063       0.94162225       1.38520659
O        5.32376517       1.77615310       1.95864757
O        3.10007674       0.80521991      -2.26122655
O        2.35585162      -3.04294780       0.39337240
O       -2.20977334      -0.97611399       1.12357480
O       -6.35100271      -0.50392900       0.51636757
H        2.08673013       3.61236413       0.04323904
70
Properties=species:S:1:pos:R:3 energy=-1087105.015685304 pbc="F F F"
C       -0.38853085       1.25542543       0.58292929
C       -1.90267606       1.09240436       0.60084256
C       -0.99440057       3.28053668      -0.76248198
C        4.21685886       3.49701927       1.26364493
C        4.94110876      -0.56448680      -1.05276912
C        0.57429729      -3.34334477      -1.13867351
C       -1.38317824      -1.35326875       3.13276732
C       -5.36735833      -2.79995431       0.19409335
C       -1.91580941       0.06452247      -1.67434337
C        2.30998448       2.07784829       0.65694534
C        1.29124159       2.89982283      -0.14325777
C        3.57820410       1.34323310      -1.79987533
C        4.28485232       2.27115883      -0.80248923
C        2.63902875      -2.12671798      -0.58607590
C        2.49256407      -0.73267471      -1.19608055
C       -0.26116295      -2.99339181       1.67699394
C        0.94629823      -2.26585302       1.07936790
C       -3.71855113      -1.46102055       1.40949596
C       -2.41134183      -2.15499447       1.02164982
C       -3.97706074       0.67198732      -0.53245733
C       -4.72803572      -0.65618660      -0.69343227
H       -0.08264034       1.31594808       1.63407595
H       -1.39316377       2.78761415      -1.64973352
H        0.08942447       0.38013528       0.13523005
H       -0.51396877       4.21029633      -1.06414403
H       -1.80566985       3.50111473      -0.06775976
H        4.29443444       3.08453722       2.27110127
H        2.12602771       2.24681813       1.72164719
H        3.58859484       4.38936071       1.27753374
H        5.20666751       3.76231874       0.89886649
H        2.53486737       1.62520455      -1.94259881
H        5.07882359      -0.70324034       0.02270953
H        4.10926967       1.44115882      -2.75236283
H        5.68496046       0.14963722      -1.39915607
H        5.10596674      -1.51716297      -1.55797271
H        3.06744931      -2.81938596      -1.31396438
H        0.85244196      -4.40074191      -1.17040174
H        3.29120408      -2.06583150       0.28933570
H        0.76634866      -2.89583096      -2.11300438
H       -0.49121471      -3.24612436      -0.94028381
H       -0.58244066      -3.82263738       1.04844845
H       -0.34467470      -1.13411806       3.37629205
H        0.06698297      -3.38224462       2.64631075
H       -1.83526175      -1.91284416       3.95723355
H       -1.90870876      -0.40923266       3.01223012
H       -4.13807162      -1.98540317       2.27510476
H       -6.02058979      -2.73128300      -0.67267669
H       -3.55308855      -0.42313458       1.69908567
H       -5.96287258      -2.97973986       1.09094569
H       -4.66299848      -3.62034737       0.04860033
H       -4.26430001       1.27236084      -1.40387925
H       -2.30602590       0.58296448      -2.55265496
H       -4.32612004       1.17867706       0.37186347
H       -2.18014397      -0.99248073      -1.76080470
H       -0.83517010       0.15394498      -1.65967371
N        0.01431738       2.46559892      -0.11644564
N        3.65707950       2.50929945       0.36602434
N        3.62936266      -0.03737440      -1.35380196
N        1.35618505      -2.63565968      -0.14863021
N       -1.40142223      -2.12357007       1.90992845
N       -4.66070678      -1.54287358       0.32269047
N       -2.52821158       0.60297810      -0.48108849
O       -2.52483936       1.39497794       1.61590425
O        1.63682451       3.89883229      -0.74619697
O        5.39684182       2.69714629      -1.05662003
O        1.39053708      -0.28635015      -1.48219218
O        1.56654849      -1.44788312       1.74428348
O       -2.31636701      -2.75983923      -0.03647831
O       -5.43126467      -0.82954504      -1.67015711
H        2.19293122       1.01116842       0.47358636
70
Properties=species:S:1:pos:R:3 energy=-1087105.6268971239 pbc="F F F"
C       -1.32070716       1.94373026       0.45344350
C       -2.34715895       1.27128232      -0.45024329
C       -0.16770142       3.19691462      -1.32348204
C        2.95535304       3.51279828       2.10088146
C        4.03164229      -0.81876440       0.85512993
C        0.50615583      -0.75184512      -1.35964153
C       -1.07974268      -3.83923263      -0.90758067
C       -5.03888034      -2.89839226       0.67473724
C       -3.92225069       1.59097826       1.41646368
C        2.34843870       2.66706774      -0.09573455
C        1.08879437       1.93380995       0.38528505
C        4.90029350       1.19842978      -0.21126286
C        4.51372703       2.05683903       0.99500496
C        2.77411075      -1.59554414      -1.67323328
C        3.46321503      -0.24252656      -1.49208077
C        0.09586921      -2.57334679       0.84525149
C        1.39766698      -2.58044156       0.04825517
C       -3.30365349      -1.99824043      -0.75826742
C       -2.13060601      -1.89975463       0.22359403
C       -4.66314479       0.62665195      -0.71916790
C       -5.24147284      -0.60573351      -0.01784793
H       -1.75945594       2.85551399       0.87654237
H       -0.18343624       4.24414596      -1.00177202
H       -1.08289518       1.25433405       1.26997573
H       -1.08783005       2.97913161      -1.86138157
H        0.65982975       3.03948032      -2.01105216
H        2.07983120       3.08905934       2.59466678
H        2.73710076       2.17433079      -0.98855026
H        2.73571748       4.53371334       1.78057415
H        3.79067933       3.52042703       2.79727320
H        4.83021626       1.76161564      -1.14483717
H        3.92434381      -1.87614481       0.62848051
H        5.94712170       0.91422310      -0.05053364
H        3.17931959      -0.50242821       1.46362320
H        4.94233962      -0.67290191       1.43391251
H        2.55859679      -1.69508430      -2.74287328
H       -0.17093910      -1.22068192      -2.07769638
H        3.41743548      -2.41764063      -1.35461058
H        0.97157999       0.09770729      -1.85394106
H       -0.07121511      -0.38458981      -0.51938451
H        0.17011082      -3.38996140       1.57260595
H       -1.88022593      -4.55103979      -0.69216910
H        0.00827583      -1.62849503       1.39014890
H       -0.13116894      -4.36236941      -0.80785476
H       -1.17398956      -3.49543107      -1.93996817
H       -3.11134640      -1.23736698      -1.51931517
H       -5.97305740      -2.61384988       1.15365514
H       -3.35459665      -2.97524496      -1.24106225
H       -4.30802863      -3.16985558       1.43923008
H       -5.21244753      -3.75370398       0.01833894
H       -4.28381490       0.41121349      -1.71880440
H       -4.95672730       1.31638909       1.60871993
H       -5.48287815       1.34993909      -0.79636551
H       -3.81692509       2.66787638       1.56831984
H       -3.28682498       1.05758572       2.12396620
N       -0.07523938       2.29401000      -0.19992626
N        3.33146857       2.70552908       0.95860128
N        4.10880627      -0.00987147      -0.34030128
N        1.53542930      -1.66486957      -0.92620477
N       -1.09151844      -2.73585084       0.02803147
N       -4.56196210      -1.76783939      -0.09471173
N       -3.59099231       1.21555888       0.05993305
O       -2.07843040       0.85067819      -1.56727799
O        1.14493276       1.10238574       1.27476072
O        5.28315247       2.15926173       1.93220299
O        3.41245475       0.59349801      -2.38856938
O        2.27692338      -3.38475648       0.31886063
O       -2.13357187      -1.05616199       1.10362929
O       -6.28977343      -0.50746312       0.59569022
H        2.09435812       3.70094793      -0.35391577
70
Properties=species:S:1:pos:R:3 energy=-1087102.1591295504 pbc="F F F"
C       -0.43840725       0.58737852      -1.41207990
C       -1.93502101       0.50588935      -1.16047760
C       -0.70002612       3.04420366      -0.94317972
C        3.99050465       3.89052865      -1.96022720
C        4.92673243      -0.08750746       0.40587122
C        0.73239486      -2.18547343       2.06606794
C       -1.91096684      -2.97336343      -2.08023997
C       -5.41991039      -2.30192497       1.61023637
C       -1.63254290       0.76957346       1.29795075
C        2.08454244       3.27460160      -0.57552910
C        1.49535568       1.95167918      -1.08560082
C        3.92262053       1.96762475       1.32419830
C        4.42126632       2.77412095       0.12212491
C        2.49921110      -1.43567867       0.52706002
C        2.53838076       0.01557103       0.98204070
C       -0.53751526      -3.61672216      -0.13816029
C        0.70299667      -2.74348158      -0.35324271
C       -3.94013477      -1.94295096      -0.30518643
C       -2.59863225      -2.43947322       0.23822651
C       -3.83422988       0.88777316       0.26271605
C       -4.58780456      -0.08639807       1.17786202
H        0.09837352      -0.17779994      -0.84511446
H       -0.36696854       3.85468445      -1.59504432
H       -0.28898099       0.36799925      -2.47680153
H       -0.71360961       3.40527193       0.08819730
H       -1.71418009       2.78867725      -1.23810516
H        3.67413620       4.93194856      -2.04789123
H        1.67593457       4.11508055      -1.14163125
H        3.59916719       3.31643477      -2.80195178
H        5.07701845       3.84173509      -1.96381070
H        4.69559972       2.03621522       2.09783336
H        4.74020112      -0.43010606      -0.61273286
H        2.97136354       2.31246217       1.72721230
H        5.21806142      -0.93841703       1.02605013
H        5.74898081       0.62412082       0.38108599
H        2.72143092      -1.46098874      -0.54513911
H        1.06361990      -1.30616243       2.61270568
H        3.26665634      -2.00274371       1.06818554
H        1.12808514      -3.08013084       2.55782894
H       -0.35516274      -2.19984990       2.09490950
H       -0.37901244      -4.53251468      -0.71597112
H       -0.92745709      -3.05908609      -2.53961424
H       -0.70040105      -3.87023191       0.90743504
H       -2.36272034      -2.04685904      -2.42760139
H       -2.53157685      -3.81701227      -2.39566229
H       -3.79632658      -1.22415636      -1.11268576
H       -4.71842142      -2.99384688       2.07903574
H       -4.48926908      -2.79841592      -0.71203050
H       -6.14591437      -2.85910819       1.01564861
H       -5.93443766      -1.73598472       2.38337986
H       -4.30378575       0.88987269      -0.72544849
H       -1.92170419      -0.04176728       1.96959503
H       -3.97452333       1.87442810       0.72188505
H       -1.85077737       1.71526710       1.79866068
H       -0.56624590       0.70423636       1.10837808
N        0.14733292       1.88291148      -1.08640234
N        3.51734222       3.32517253      -0.71311935
N        3.76090453       0.57504649       0.94524359
N        1.21577172      -2.08369082       0.70547466
N       -1.73462307      -2.96592671      -0.64525260
N       -4.71498327      -1.36376460       0.76248418
N       -2.41023125       0.66814999       0.08602551
O       -2.69011876       0.29288262      -2.10575740
O        2.20719618       1.02750972      -1.42538204
O        5.62216541       2.88102197      -0.06246770
O        1.55383732       0.61855943       1.38942793
O        1.18706311      -2.66902086      -1.47177824
O       -2.35443994      -2.38885557       1.43530241
O       -5.13185954       0.33834582       2.17949006
H        1.78305967       3.39200236       0.46825914
70
Properties=species:S:1:pos:R:3 energy=-1087105.4131659225 pbc="F F F"
C       -0.97463566       1.89379260       0.28665237
C       -2.21080591       1.24287032      -0.31163229
C       -0.33154321       2.85558241      -1.91456265
C        3.21870835       4.25715992      -0.98552899
C        4.41992466       0.81921833       1.96719819
C        2.38762837      -3.56681029       0.82601922
C       -1.16811115      -1.95087072      -2.22202599
C       -5.45368501      -2.95022815       0.34758291
C       -3.03701555       1.06397853       2.00260196
C        2.41167456       2.01000002      -1.41703608
C        1.33030825       1.94028850      -0.33029877
C        4.97962027       0.92620468      -0.42841470
C        4.70057068       2.43064834      -0.49801855
C        2.52249358      -1.21557183       1.51213176
C        3.31633802      -0.64751071       0.33782809
C       -0.17799883      -3.12880907      -0.28193601
C        0.50836145      -2.01053690       0.50649279
C       -3.66620792      -1.85633907      -0.91149881
C       -2.47056485      -2.49948258      -0.20049260
C       -4.54408195       0.74122689       0.08832329
C       -5.18649896      -0.57110087       0.55862028
H       -1.28524873       2.80848906       0.81037308
H        0.33104469       3.69612223      -2.12752870
H       -0.52385922       1.20842529       1.00887917
H       -1.34003179       3.24363995      -1.79455616
H       -0.34196340       2.16615748      -2.76047532
H        4.09925003       4.78633903      -0.62737233
H        2.73284533       0.97861597      -1.57678211
H        2.37658323       4.46700082      -0.32232932
H        2.97845416       4.59475071      -1.99616541
H        4.74329338       0.41926793      -1.36592197
H        3.48965010       1.25322033       2.33583316
H        6.05189291       0.82210270      -0.22748631
H        5.17557165       1.60001322       1.92453955
H        4.75882390       0.04257170       2.65585840
H        3.17662029      -1.54822038       2.31951077
H        3.16770585      -3.67810656       1.57866047
H        1.86161439      -0.42216350       1.87204990
H        2.85592778      -3.59167822      -0.16236631
H        1.69803168      -4.40259252       0.92421237
H        0.50223344      -3.55784291      -1.01839174
H       -1.85921196      -2.35371470      -2.96558411
H       -0.50808671      -3.90026955       0.42103741
H       -0.15045353      -2.12307432      -2.56398412
H       -1.32094172      -0.87282872      -2.14193015
H       -3.36249755      -0.89256181      -1.31670714
H       -4.76164901      -3.59670107       0.88647235
H       -3.95434094      -2.50499571      -1.74856643
H       -5.81278489      -3.46005866      -0.54889173
H       -6.29404785      -2.70200395       0.99159699
H       -4.53539239       0.80282578      -1.00222805
H       -2.92946326       2.09831944       2.34212566
H       -5.19338770       1.53532610       0.47914722
H       -2.16548753       0.48977871       2.31579999