34
Properties=species:S:1:pos:R:3 energy=-597510.2325800525 pbc="F F F"
O       -0.43837802       0.93285684      -0.56191545
C        0.21307205       2.00063671       0.13179632
C        1.53209447       1.57007933       0.77234317
N        2.50981324       1.09966315      -0.02879838
C        2.42935311       0.54418170      -1.35623380
C        2.86616951      -0.93417474      -1.30502900
O        2.23005750      -1.63917838      -0.27008561
C        0.92569861      -2.09761946      -0.57249159
C        0.21688410      -2.45969571       0.73702457
N       -0.27072821      -1.31151903       1.45949927
C       -1.46505943      -0.69720045       1.34259755
C       -2.47777836      -1.32318653       0.37393372
O       -2.06519522      -1.24175207      -0.98075495
C       -2.36221705      -0.01737086      -1.59794659
C       -1.66141796       1.21218669      -1.01778211
O        1.73181000       1.75105582       1.95405799
O       -1.74312743       0.29668637       1.98171138
O       -2.14966945       2.30739623      -1.01585314
H       -0.44594186       2.34555387       0.93571608
H        0.39158346       2.83099775      -0.56241722
H        3.35120524       0.85228517       0.47957259
H        3.09719472       1.08881091      -2.03374945
H        1.40891978       0.63043003      -1.72359303
H        3.93403274      -0.98529792      -1.07123464
H        2.69509661      -1.41153876      -2.27903020
H        0.99104776      -2.98989473      -1.21331615
H        0.34310439      -1.33398430      -1.09380142
H        0.92924667      -2.98639421       1.37627132
H       -0.61461373      -3.12504914       0.50458150
H        0.40357340      -0.80904707       2.02357077
H       -3.43560775      -0.80832177       0.51779432
H       -2.61028212      -2.38618630       0.59126309
H       -3.44136529       0.19243725      -1.57252272
H       -2.05198488      -0.12775191      -2.64255985
34
Properties=species:S:1:pos:R:3 energy=-597509.869551035 pbc="F F F"
O       -0.44843160       1.12850183      -0.32114636
C        0.14360475       2.12914341       0.51399910
C        1.61110916       2.38388930       0.16027813
N        2.46460285       1.34757552       0.28501671
C        2.17559366      -0.02591570       0.60284453
C        2.64477229      -0.96721960      -0.52558360
O        2.12710892      -2.26811575      -0.39945079
C        0.82193687      -2.47001611      -0.91567097
C       -0.12480535      -3.04299055       0.15048681
N       -0.36654114      -2.11325448       1.22521229
C       -1.30279821      -1.14628010       1.30244147
C       -2.43269471      -1.20559598       0.26993943
O       -1.95874113      -1.04377586      -1.06009568
C       -2.20747022       0.21764259      -1.62514968
C       -1.64225630       1.40504987      -0.84228944
O        1.99720447       3.48388684      -0.16809352
O       -1.26945199      -0.30107360       2.17585513
O       -2.22412691       2.44837508      -0.73459277
H        0.05137399       1.79218535       1.55315901
H       -0.40187701       3.06902117       0.38511487
H        3.42916149       1.57111421       0.07542548
H        1.10140572      -0.13364532       0.72872586
H        2.67269626      -0.30575713       1.53907332
H        3.73239308      -1.07914691      -0.49216802
H        2.36803391      -0.52868666      -1.49381485
H        0.89039486      -3.19257576      -1.73883364
H        0.39960815      -1.53795483      -1.29917721
H        0.32343885      -3.94330457       0.57630047
H       -1.06498941      -3.29922820      -0.33636735
H        0.37892108      -2.03401174       1.90549259
H       -3.16420727      -0.43397089       0.52799057
H       -2.91950457      -2.18613548       0.32831783
H       -3.28531200       0.39602226      -1.74749804
H       -1.73906853       0.19722879      -2.61408783
34
Properties=species:S:1:pos:R:3 energy=-597506.5365390343 pbc="F F F"
O       -1.03810630       2.00557681       0.45128121
C        0.26819184       2.26967993       0.96671189
C        1.32713621       2.37260252      -0.14117723
N        2.40839791       1.55572168      -0.08260439
C        2.55183651       0.24550603       0.50470566
C        2.44942521      -0.86218321      -0.56119519
O        2.19409215      -2.10154003       0.08359796
C        1.32122303      -2.97884744      -0.59018066
C       -0.14554917      -2.50212062      -0.57213152
N       -0.39976796      -1.92203641       0.72517137
C       -1.45575610      -1.20026139       1.12959430
C       -2.74253984      -1.32078623       0.30293418
O       -2.71835642      -0.65547349      -0.94407806
C       -2.57401893       0.74097711      -0.83868220
C       -1.13070688       1.09648314      -0.49918528
O        1.25853741       3.25573421      -0.96797609
O       -1.41256043      -0.52868164       2.14563613
O       -0.18734761       0.56493880      -1.03155908
H        0.49406277       1.50947096       1.71743082
H        0.18984738       3.24848914       1.44499490
H        3.05752624       1.74114555      -0.83873836
H        1.76855581       0.08136959       1.24355637
H        3.51781458       0.18644064       1.01516133
H        3.38681024      -0.93612122      -1.12938309
H        1.63958286      -0.60293287      -1.24504741
H        1.40968873      -3.91766054      -0.03703267
H        1.64184639      -3.14442595      -1.62596107
H       -0.80416823      -3.35645910      -0.75672311
H       -0.32501599      -1.75534853      -1.35216418
H        0.44116565      -1.81577168       1.28569609
H       -3.55912324      -0.92699754       0.92537127
H       -2.93401237      -2.37024677       0.06772477
H       -3.24646288       1.16570807      -0.08364148
H       -2.81385918       1.14461677      -1.82611186
34
Properties=species:S:1:pos:R:3 energy=-597511.6351067806 pbc="F F F"
O       -0.19938355       0.93977444      -1.30164266
C        0.81145460       1.70031907      -1.95680480
C        2.21437587       1.13799820      -1.70243881
N        2.74986861       1.29402319      -0.47414970
C        2.16039553       1.78783167       0.74526551
C        1.80013271       0.65466351       1.72572023
O        0.81752368      -0.22221864       1.22489092
C        1.30582254      -1.40721313       0.62682436
C        0.11833036      -2.19627918       0.07135161
N       -0.83126371      -2.49545421       1.11459833
C       -2.13670356      -2.18017105       1.21464594
C       -2.84176478      -1.57873717      -0.00811265
O       -2.18058613      -0.51251751      -0.64984182
C       -2.02454368       0.62414951       0.16060978
C       -0.97734244       1.55244366      -0.42079016
O        2.84423740       0.60442239      -2.59083577
O       -2.76482738      -2.43009033       2.22486165
O       -0.85783864       2.70493768      -0.08776085
H        0.74915923       2.74914760      -1.64443939
H        0.62855307       1.61910789      -3.03218714
H        3.67872455       0.89913354      -0.38632078
H        1.26405041       2.36356485       0.52036374
H        2.87781136       2.45023124       1.24014111
H        1.37764721       1.11016997       2.62694069
H        2.70409326       0.09668087       2.00369178
H        1.83939352      -2.00482742       1.38467999
H        1.99735488      -1.19152018      -0.19625878
H        0.49804549      -3.12808142      -0.36473949
H       -0.36965880      -1.60591037      -0.70262249
H       -0.44473559      -2.90057572       1.95920448
H       -3.84444251      -1.27599112       0.32455416
H       -2.94433532      -2.36025339      -0.76708201
H       -1.67263607       0.35250868       1.16690196
H       -2.96890000       1.17842623       0.26607128
34
Properties=species:S:1:pos:R:3 energy=-597507.7303153682 pbc="F F F"
O       -0.64022945       0.89314414      -0.05144257
C        0.18079395       1.93504787       0.46605852
C        1.56431587       1.42257113       0.87739953
N        2.48363607       1.23360561      -0.09485617
C        2.25966453       0.99996652      -1.49915044
C        2.09291334      -0.50684354      -1.79180293
O        1.05653159      -1.08429577      -1.03116709
C        1.46040269      -1.84163477       0.09027386
C        0.21453927      -2.34626392       0.82679424
N       -0.38686170      -1.34348562       1.66807575
C       -1.59382325      -0.75397488       1.56181716
C       -2.54039861      -1.25673269       0.46300734
O       -2.00802586      -1.32607672      -0.84556798
C       -2.07476251      -0.16320830      -1.61705009
C       -1.10684705       0.96874080      -1.28293557
O        1.85376166       1.25615278       2.04425839
O       -1.96360741       0.08722895       2.35551783
O       -0.84181021       1.84646181      -2.06795624
H       -0.31287520       2.28553108       1.37803184
H        0.26092053       2.74508142      -0.26698878
H        3.37742563       0.91173097       0.25961422
H        3.11588551       1.37923358      -2.06328012
H        1.36780620       1.53322535      -1.82556718
H        3.04001404      -1.03144541      -1.61027358
H        1.82275372      -0.62597163      -2.84616596
H        2.07659588      -1.24932114       0.78040224
H        2.05344649      -2.70715494      -0.24590291
H        0.51093366      -3.19783498       1.45124600
H       -0.50805445      -2.67155228       0.08077372
H        0.21383748      -0.92560078       2.36981353
H       -3.43046845      -0.61531559       0.49004090
H       -2.84216166      -2.27985968       0.71627450
H       -3.08556663       0.27833344      -1.58461341
H       -1.86929709      -0.47356856      -2.64537699
34
Properties=species:S:1:pos:R:3 energy=-597506.978447003 pbc="F F F"
O       -0.67636339       1.49327677       0.72729450
C        0.72596788       1.52563561       0.98764153
C        1.45820448       2.25396760      -0.14622279
N        2.63814135       1.73303590      -0.55682802
C        3.23844183       0.45611245      -0.24416429
C        2.52569313      -0.74197955      -0.90485538
O        2.05827050      -1.60237498       0.12328696
C        1.26137703      -2.67875561      -0.31963587
C       -0.22324117      -2.30585288      -0.43180904
N       -0.63598374      -1.76906314       0.84512942
C       -1.83425393      -1.30783898       1.24637853
C       -2.98163976      -1.34743816       0.23296752
O       -2.80351324      -0.53148542      -0.90605121
C       -2.52494098       0.82308224      -0.61257580
C       -1.01946167       0.99786085      -0.45063957
O        1.02557236       3.28249505      -0.61416052
O       -2.00279613      -0.89017558       2.37495251
O       -0.22673286       0.64972875      -1.29161095
H        1.08467307       0.50172328       1.10805837
H        0.83485325       2.08593615       1.91772628
H        3.01848743       2.22004981      -1.35726016
H        3.23904837       0.29381592       0.83648115
H        4.27734275       0.50260208      -0.57196124
H        3.21537217      -1.30091424      -1.55262321
H        1.69108564      -0.37565457      -1.51149703
H        1.38015275      -3.45833506       0.44007803
H        1.62304264      -3.06345959      -1.28063901
H       -0.80224708      -3.20194474      -0.68050845
H       -0.37433269      -1.56683225      -1.22499713
H        0.09958994      -1.69905281       1.53810630
H       -3.89021898      -1.04869997       0.77553010
H       -3.10712816      -2.36199180      -0.15389206
H       -3.04510293       1.16341026       0.28839875
H       -2.85205003       1.39810916      -1.48327762
34
Properties=species:S:1:pos:R:3 energy=-597507.3917497972 pbc="F F F"
O       -0.60012570       1.06707320      -0.30700001
C        0.08694767       1.93345314       0.58882406
C        1.60716531       1.95324248       0.50591544
N        2.29969877       1.14780425      -0.32325767
C        1.92086378       0.09431956      -1.23252949
C        2.74220006      -1.17578416      -0.95989636
O        2.46737410      -1.76211358       0.29388171
C        1.61756958      -2.88076895       0.29336826
C        0.13519000      -2.55668175       0.07424119
N       -0.29410900      -1.58922564       1.05664616
C       -1.48641893      -0.97220425       1.12962801
C       -2.48956841      -1.33848897       0.02846902
O       -2.06608287      -0.93422685      -1.26475320
C       -2.43434517       0.37391122      -1.61781402
C       -1.75915494       1.48451908      -0.81253434
O        2.19988531       2.74062601       1.21701193
O       -1.75522087      -0.18857874       2.01794649
O       -2.21538922       2.58660974      -0.69101332
H       -0.18432348       1.63665926       1.61118273
H       -0.26604165       2.96098403       0.43914957
H        3.29958834       1.29275617      -0.23771573
H        2.12027836       0.41282522      -2.26461406
H        0.86035446      -0.11096325      -1.12557979
H        3.80668273      -0.91277831      -0.94364088
H        2.57535732      -1.89672755      -1.76953831
H        1.74704907      -3.32620359       1.28404604
H        1.93693419      -3.61064617      -0.46468011
H       -0.43511318      -3.48848433       0.18149073
H       -0.03548861      -2.17262914      -0.93587728
H        0.40104644      -1.30480474       1.73485557
H       -3.45453280      -0.88468076       0.28135398
H       -2.60359026      -2.42586632      -0.01535217
H       -3.52036853       0.52250471      -1.53607761
H       -2.14508418       0.49144447      -2.66730055
34
Properties=species:S:1:pos:R:3 energy=-597509.8944112936 pbc="F F F"
O       -0.05695934       2.15035001      -1.00697138
C        0.82006756       3.04870075      -0.32503478
C        2.29175711       2.79904130      -0.67625038
N        2.85475100       1.64737468      -0.26067033
C        2.27674245       0.48528325       0.36886001
C        2.00241526      -0.63156403      -0.66304071
O        1.93639259      -1.90818429      -0.07145136
C        0.65992144      -2.48491083       0.06776231
C       -0.11727297      -2.00562236       1.31071106
N       -1.36579935      -2.71420552       1.43541940
C       -2.58199039      -2.38165323       0.95417849
C       -2.74223208      -0.97481071       0.37905714
O       -1.85327078      -0.77966896      -0.71125601
C       -1.77535011       0.54512653      -1.17075806
C       -0.87588255       1.39900034      -0.28096573
O        2.93691439       3.64021869      -1.26216333
O       -3.52332866      -3.14012935       1.04178754
O       -0.87972374       1.36860457       0.92492009
H        0.66120530       2.96832856       0.75612796
H        0.57673371       4.05920056      -0.66384922
H        3.81878130       1.54799923      -0.55390259
H        1.37156298       0.75929030       0.90887792
H        2.99457861       0.09315781       1.09535922
H        2.84980511      -0.65951763      -1.36013577
H        1.09381152      -0.41651867      -1.23581218
H        0.84360121      -3.56006149       0.15605698
H        0.04536090      -2.30246349      -0.82266991
H       -0.31325404      -0.93672826       1.24746419
H        0.48496439      -2.19363263       2.20407100
H       -1.30598896      -3.66951169       1.76374367
H       -2.55101937      -0.25018037       1.17933380
H       -3.78153285      -0.87005992       0.04029781
H       -2.76984278       1.01296881      -1.21402560
H       -1.35413764       0.51233517      -2.17814877
34
Properties=species:S:1:pos:R:3 energy=-597507.6029877957 pbc="F F F"
O       -0.46444197       1.11102325       0.37495587
C        0.24087317       2.04578842      -0.43677239
C        1.53508390       1.42228810      -0.95013159
N        2.39528072       0.91550376      -0.04369989
C        2.21775583       0.64650185       1.36206672
C        1.52308547      -0.70127160       1.65138414
O        2.19980484      -1.82968573       1.13666785
C        1.92696887      -2.20750457      -0.19550077
C        0.44169660      -2.46497657      -0.51751280
N       -0.15419987      -1.36929828      -1.25082064
C       -1.40769131      -0.87709289      -1.18699570
C       -2.31303440      -1.41615482      -0.07170247
O       -1.91324759      -0.97665410       1.21590106
C       -2.35390411       0.31420924       1.54928492
C       -1.68040101       1.45927702       0.79062941
O        1.81046941       1.41866606      -2.13221797
O       -1.79960781      -0.02964079      -1.96202827
O       -2.17308919       2.54117313       0.63735898
H        0.45622651       2.95279553       0.14137471
H       -0.37688922       2.31400666      -1.29998232
H        3.23477294       0.53116852      -0.45860775
H        1.62198640       1.43871692       1.81946157
H        3.20918578       0.64232900       1.82081582
H        0.49266417      -0.66601976       1.29561249
H        1.51526255      -0.84533388       2.73571672
H        2.49144092      -3.13619910      -0.31113684
H        2.32258148      -1.47697938      -0.91345653
H       -0.10022396      -2.62423967       0.41493097
H        0.37210055      -3.37938707      -1.12093802
H        0.39847826      -0.98530742      -2.00927637
H       -2.28795597      -2.50851336      -0.04778877
H       -3.33611692      -1.08573127      -0.28982672
H       -2.12667146       0.43962591       2.61329070
H       -3.43851154       0.41807809       1.40669996
34
Properties=species:S:1:pos:R:3 energy=-597507.1418912292 pbc="F F F"
O       -0.96160116       2.00655972      -0.11481016
C        0.33533614       2.58289359      -0.28619062
C        1.34969457       1.97470027       0.70161132
N        2.10796249       0.94802333       0.26448182
C        2.24969035       0.38654048      -1.06146275
C        2.95601701      -0.97382328      -0.97278381
O        2.38127395      -1.87011180      -0.05067771
C        1.36551659      -2.73008897      -0.51458438
C       -0.02922198      -2.08347197      -0.55628903
N       -0.21735397      -1.34317554       0.66641505
C       -1.34912302      -0.99644983       1.30280531
C       -2.67053566      -1.37603587       0.62692875
O       -2.85453354      -0.80870821      -0.65419325
C       -2.78000144       0.59853347      -0.66941505
C       -1.36076328       1.07560243      -0.96530735
O        1.46337568       2.41060382       1.82361747
O       -1.33254326      -0.40318005       2.36146366
O       -0.69796869       0.65878909      -1.88494251
H        0.22203886       3.63720051      -0.02429398
H        0.65530490       2.47070756      -1.32563171
H        2.76266091       0.60068180       0.95500355
H        2.86534366       1.04131882      -1.69405861
H        1.27118323       0.27729302      -1.53043069
H        3.97962858      -0.82012932      -0.61290296
H        3.00070059      -1.41948559      -1.97462560
H        1.35842290      -3.55079939       0.20872881
H        1.61524716      -3.12995508      -1.50570313
H       -0.78291377      -2.86889656      -0.64906635
H       -0.12870011      -1.42622921      -1.42759421
H        0.64395985      -1.05405032       1.11877148
H       -3.47661718      -1.06006643       1.30423567
H       -2.72926063      -2.45745153       0.48102417
H       -3.12652091       1.03896340       0.27140666
H       -3.41835397       0.93122584      -1.49540164
34
Properties=species:S:1:pos:R:3 energy=-597508.6704240227 pbc="F F F"
O       -0.62738107       1.19068005      -0.60869352
C        0.19014847       2.26866060      -0.15199038
C        1.38296708       1.79512933       0.67802570
N        2.15605503       0.82264038       0.15723544
C        2.04974721       0.13923187      -1.11007736
C        2.86877085      -1.15843239      -1.03701221
O        2.61728118      -1.90295634       0.13416742
C        1.65349348      -2.92373732       0.05246658
C        0.20516522      -2.43442750      -0.06651053
N       -0.06472103      -1.45884591       0.96241158
C       -1.23406001      -0.83946899       1.21046160
C       -2.40647654      -1.27345314       0.32150922
O       -2.21142144      -0.96232288      -1.04866119
C       -2.67682517       0.30200809      -1.43315101
C       -1.87715070       1.50825008      -0.94309097
O        1.65575228       2.32029285       1.73344863
O       -1.36347946      -0.01654451       2.09025315
O       -2.32816726       2.62019947      -0.92280932
H       -0.40963620       2.93960349       0.47035234
H        0.55599789       2.83050383      -1.02130931
H        2.93915030       0.55097811       0.73819998
H        2.45460508       0.75960434      -1.92197683
H        1.00228110      -0.06941149      -1.32534312
H        3.93299021      -0.90180902      -0.99138065
H        2.69370781      -1.76294478      -1.93514256
H        1.77315488      -3.48017176       0.98602330
H        1.87216625      -3.59449490      -0.79081851
H       -0.45370798      -3.30264206       0.04996778
H        0.01651827      -2.01036786      -1.05841912
H        0.73480318      -1.13483784       1.49233345
H       -3.31671847      -0.79754428       0.70352367
H       -2.52271576      -2.36055877       0.37432902
H       -3.72054747       0.45931066      -1.12528752
H       -2.63749132       0.31304885      -2.52842788
34
Properties=species:S:1:pos:R:3 energy=-597510.4492527454 pbc="F F F"
O       -0.23954457       1.90914969      -0.73127289
C        0.74083872       2.94573392      -0.68763130
C        2.04498444       2.54855597      -1.38656791
N        2.78553662       1.57308365      -0.82468008
C        2.48957578       0.69060158       0.27498626
C        2.02584650      -0.69271936      -0.22966877
O        1.97857018      -1.63066866       0.82517546
C        0.71024998      -1.83719547       1.40087828
C       -0.11445866      -2.84795549       0.57377521
N       -1.48178985      -2.93927303       1.01538047
C       -2.58144483      -2.36522012       0.48545454
C       -2.38718079      -1.55164681      -0.80130981
O       -1.45011619      -0.50305788      -0.66070111
C       -1.92025957       0.52856795       0.17614822
C       -0.81544531       1.55002330       0.40610469
O        2.42454800       3.13917555      -2.37373974
O       -3.67482531      -2.49718317       0.99489611
O       -0.52106309       1.97572707       1.49288383
H        0.93210476       3.22908515       0.35385595
H        0.33435240       3.80206090      -1.23379175
H        3.62175107       1.35013893      -1.35005495
H        1.73434040       1.13112687       0.92545839
H        3.39898377       0.54943755       0.86709563
H        2.76191519      -1.07102892      -0.94721382
H        1.05840784      -0.59793098      -0.73396099
H        0.15796387      -0.89579356       1.49517327
H        0.89731510      -2.23453608       2.40203547
H        0.35393351      -3.83324864       0.65285192
H       -0.09195215      -2.54115959      -0.47159452
H       -1.64533755      -3.43292393       1.88346544
H       -3.36999132      -1.16157596      -1.09503187
H       -2.00937074      -2.19674775      -1.59869013
H       -2.24499129       0.14309405       1.15197962
H       -2.77190468       1.04639064      -0.29305739
34
Properties=species:S:1:pos:R:3 energy=-597507.0855055951 pbc="F F F"
O       -0.39820793       0.80098231      -0.10696995
C        0.52648661       1.43064267       0.77115480
C        1.72298734       2.06802330       0.06310441
N        2.28689315       1.39349882      -0.96408108
C        2.06910625       0.03578516      -1.40586193
C        2.88400514      -0.99348787      -0.59383032
O        2.25530607      -1.43020053       0.59183849
C        1.56384153      -2.65402051       0.53231223
C        0.08561665      -2.54530090       0.13735303
N       -0.63740378      -1.79665958       1.13802950
C       -1.85502762      -1.23270539       1.02625806
C       -2.59539145      -1.48119424      -0.29418311
O       -2.05686555      -0.76814839      -1.39201908
C       -2.35807900       0.60492646      -1.38929390
C       -1.51814597       1.44845023      -0.42989309
O        2.16366216       3.13669775       0.42339230
O       -2.34901076      -0.58872601       1.92795452
O       -1.81982142       2.54717515      -0.06214772
H        0.90399899       0.65171403       1.44029322
H        0.01944112       2.21117064       1.34601683
H        3.11664672       1.84913015      -1.32246617
H        2.37512155      -0.02157359      -2.45336110
H        1.00856990      -0.19857340      -1.33809826
H        3.82522318      -0.52856096      -0.27944003
H        3.11782878      -1.85522578      -1.23179644
H        1.62629495      -3.07251757       1.54312548
H        2.06491105      -3.34559565      -0.15871946
H       -0.31587496      -3.56571067       0.06214205
H       -0.02344352      -2.06030412      -0.83563044
H       -0.15157826      -1.61479767       2.00613613
H       -3.64663783      -1.20496922      -0.13887256
H       -2.53410953      -2.53808741      -0.56578302
H       -3.41687979       0.78690099      -1.16226380
H       -2.15236057       0.96143542      -2.40450905
34
Properties=species:S:1:pos:R:3 energy=-597509.034464341 pbc="F F F"
O       -0.26749485       0.71776854      -0.13182379
C        0.57576403       1.38221388       0.79906102
C        1.77814376       2.11061074       0.20084984
N        2.41855243       1.56188670      -0.85569375
C        2.24562222       0.27293105      -1.48579868
C        2.80913676      -0.89683118      -0.64937483
O        1.90084678      -1.44053933       0.27616110
C        0.91927913      -2.27938179      -0.29949729
C        0.04894734      -2.85383515       0.82202668
N       -0.73234024      -1.85114943       1.50248174
C       -1.83877193      -1.19743203       1.08862114
C       -2.46864355      -1.61876601      -0.24406067
O       -1.89812804      -0.95107760      -1.35508282
C       -2.21006713       0.41851245      -1.43059048
C       -1.40100260       1.31971878      -0.49664093
O        2.17564134       3.14377755       0.69411017
O       -2.33135061      -0.31423720       1.76106200
O       -1.73353532       2.42600304      -0.18269703
H        0.96045111       0.60752584       1.46953753
H       -0.00758222       2.11471094       1.36570919
H        3.24878054       2.07875393      -1.11451575
H        2.76833092       0.30766639      -2.44336110
H        1.18700232       0.09787858      -1.67784221
H        3.65571798      -0.54363373      -0.05382678
H        3.15985059      -1.68755903      -1.32920116
H        1.40761492      -3.10649076      -0.83876817
H        0.28260535      -1.72802322      -1.00027314
H        0.69593695      -3.32462303       1.56453070
H       -0.60691896      -3.61730876       0.39619047
H       -0.31922275      -1.45531842       2.33620992
H       -3.54192474      -1.39143700      -0.18161505
H       -2.33164825      -2.68330810      -0.43903132
H       -3.27403751       0.60186663      -1.23278679
H       -1.98805970       0.72220761      -2.45953928
34
Properties=species:S:1:pos:R:3 energy=-597511.2073653622 pbc="F F F"
O       -0.52572159       1.16178275      -1.09751522
C        0.47786132       1.64494814      -1.99131338
C        1.69882045       0.72263261      -1.88934172
N        2.44134701       0.80454046      -0.77001720
C        2.26790276       1.59390729       0.42444448
C        1.53460731       0.81918661       1.53585474
O        2.07611348      -0.48356486       1.66727421
C        1.11909408      -1.51406920       1.73597477
C        0.51784834      -1.87018042       0.35851115
N       -0.63410124      -2.72257371       0.49518823
C       -1.94246634      -2.40233113       0.43973446
C       -2.30046089      -0.97760644       0.00732740
O       -1.76702694      -0.03594787       0.92310905
C       -2.09945722       1.30305195       0.66228912
C       -1.11245049       2.01721391      -0.26269055
O        1.97698863      -0.04692904      -2.78323010
O       -2.80364578      -3.22554568       0.66252187
O       -0.88386896       3.19611559      -0.22017835
H        0.71406190       2.68680740      -1.75505753
H        0.08572546       1.57345246      -3.00939616
H        3.16569470       0.10049127      -0.70553198
H        1.71643233       2.51043309       0.20945299
H        3.26495442       1.86363826       0.78130478
H        0.46685766       0.75926816       1.31969390
H        1.66288595       1.36090383       2.48283321
H        0.30143514      -1.24145353       2.41604246
H        1.65028742      -2.37544537       2.14888950
H        1.27024422      -2.37780213      -0.25256837
H        0.22436201      -0.95695161      -0.15606411
H       -0.45686369      -3.66981201       0.80422573
H       -3.39622974      -0.91057625      -0.00798581
H       -1.91868511      -0.80762498      -1.00850102
H       -2.09189688       1.83223648       1.62059461
H       -3.10493690       1.39429727       0.22823692
34
Properties=species:S:1:pos:R:3 energy=-597504.818239725 pbc="F F F"
O       -1.13209806       1.82884088       0.28898675
C        0.05200015       2.27507373       0.95851283
C        1.29348821       2.43233910       0.06526676
N        2.28548802       1.52126735       0.20551729
C        2.19208530       0.13984987       0.61660876
C        2.57776854      -0.80690273      -0.54616551
O        2.00850813      -2.09197764      -0.42913628
C        0.79372333      -2.30583940      -1.13472828
C       -0.26444320      -2.92522886      -0.20620718
N       -0.38817097      -2.13585855       0.99343410
C       -1.27880547      -1.17487068       1.29496690
C       -2.60318097      -1.17084730       0.52255660
O       -2.50006231      -0.88273440      -0.85876097
C       -2.40229669       0.48957579      -1.17105785
C       -1.03474790       1.04125105      -0.76070759
O        1.43819476       3.42253751      -0.61809246
O       -1.07175161      -0.39168280       2.20581275
O       -0.00899017       0.73539936      -1.31605079
H        0.22281627       1.59775562       1.80000361
H       -0.19894375       3.26976651       1.33564984
H        3.09672663       1.73961198      -0.36039480
H        1.17010748      -0.07232937       0.92224228
H        2.85208848      -0.03254081       1.47401948
H        3.66222828      -0.95509798      -0.55603544